# vtk DataFile Version 2.0
HEAT EQUATION
ASCII
DATASET UNSTRUCTURED_GRID
POINTS 712 float
0 0 0 
1 0 0 
1 1 0 
0 1 0 
0.05 0 0 
0.1 0 0 
0.15 0 0 
0.2 0 0 
0.25 0 0 
0.3 0 0 
0.35 0 0 
0.4 0 0 
0.45 0 0 
0.5 0 0 
0.55 0 0 
0.6 0 0 
0.65 0 0 
0.7 0 0 
0.75 0 0 
0.8 0 0 
0.85 0 0 
0.9 0 0 
0.95 0 0 
1 0.05 0 
1 0.1 0 
1 0.15 0 
1 0.2 0 
1 0.25 0 
1 0.3 0 
1 0.35 0 
1 0.4 0 
1 0.45 0 
1 0.5 0 
1 0.55 0 
1 0.6 0 
1 0.65 0 
1 0.7 0 
1 0.75 0 
1 0.8 0 
1 0.85 0 
1 0.9 0 
1 0.95 0 
0.95 1 0 
0.9 1 0 
0.85 1 0 
0.8 1 0 
0.75 1 0 
0.7 1 0 
0.65 1 0 
0.6 1 0 
0.55 1 0 
0.5 1 0 
0.45 1 0 
0.4 1 0 
0.35 1 0 
0.3 1 0 
0.25 1 0 
0.2 1 0 
0.15 1 0 
0.1 1 0 
0.05 1 0 
0 0.95 0 
0 0.9 0 
0 0.85 0 
0 0.8 0 
0 0.75 0 
0 0.7 0 
0 0.65 0 
0 0.6 0 
0 0.55 0 
0 0.5 0 
0 0.45 0 
0 0.4 0 
0 0.35 0 
0 0.3 0 
0 0.25 0 
0 0.2 0 
0 0.15 0 
0 0.1 0 
0 0.05 0 
0.506999 0.498671 0 
0.128644 0.130167 0 
0.13034 0.874513 0 
0.873757 0.869449 0 
0.870372 0.125743 0 
0.032095 0.966901 0 
0.966857 0.967912 0 
0.0327483 0.0328187 0 
0.967926 0.0331516 0 
0.725637 0.350394 0 
0.656395 0.736916 0 
0.274174 0.638193 0 
0.346762 0.266219 0 
0.0759287 0.173872 0 
0.188041 0.931161 0 
0.93095 0.812104 0 
0.813483 0.0694889 0 
0.0857834 0.0734093 0 
0.91282 0.929293 0 
0.929517 0.0871615 0 
0.0706969 0.913161 0 
0.204039 0.431694 0 
0.781392 0.576096 0 
0.421199 0.786459 0 
0.55839 0.217333 0 
0.855241 0.279012 0 
0.146352 0.723557 0 
0.725185 0.862147 0 
0.276125 0.140636 0 
0.151414 0.0622321 0 
0.933155 0.155294 0 
0.844355 0.93193 0 
0.068006 0.845481 0 
0.112606 0.920747 0 
0.92039 0.887368 0 
0.887746 0.0795476 0 
0.0783402 0.122703 0 
0.0414739 0.231377 0 
0.777029 0.0437402 0 
0.957621 0.775938 0 
0.224181 0.957763 0 
0.0741178 0.956371 0 
0.956245 0.925887 0 
0.0427131 0.0768263 0 
0.925957 0.0437685 0 
0.0365251 0.927846 0 
0.0713895 0.0374717 0 
0.927706 0.963483 0 
0.963563 0.0722939 0 
0.501598 0.659309 0 
0.340306 0.500489 0 
0.660732 0.494392 0 
0.722858 0.193723 0 
0.485542 0.343198 0 
0.858407 0.42472 0 
0.144835 0.572974 0 
0.575818 0.859192 0 
0.423866 0.140276 0 
0.815636 0.72665 0 
0.192161 0.278338 0 
0.278522 0.817149 0 
0.570652 0.113316 0 
0.907358 0.563105 0 
0.436717 0.904931 0 
0.927928 0.225027 0 
0.230642 0.0887988 0 
0.770169 0.921379 0 
0.080921 0.771308 0 
0.0426327 0.879993 0 
0.879576 0.957367 0 
0.957735 0.120332 0 
0.117947 0.0422312 0 
0.965092 0.882534 0 
0.0318012 0.121958 0 
0.117472 0.965204 0 
0.882645 0.034948 0 
0.817987 0.033045 0 
0.182518 0.967456 0 
0.967375 0.817536 0 
0.157383 0.906506 0 
0.906138 0.842662 0 
0.843833 0.0934807 0 
0.0464154 0.195584 0 
0.105575 0.157303 0 
0.11989 0.0885007 0 
0.912258 0.120738 0 
0.879121 0.911635 0 
0.0882494 0.879884 0 
0.603772 0.383883 0 
0.617213 0.618762 0 
0.382495 0.392558 0 
0.396254 0.681115 0 
0.114793 0.374045 0 
0.458219 0.242908 0 
0.532799 0.756595 0 
0.761832 0.477358 0 
0.251588 0.518473 0 
0.682562 0.0994648 0 
0.887402 0.674245 0 
0.323889 0.888927 0 
0.0912322 0.632438 0 
0.81094 0.160088 0 
0.316964 0.0876644 0 
0.685043 0.917441 0 
0.915042 0.312585 0 
0.170105 0.64749 0 
0.834809 0.809985 0 
0.156149 0.195547 0 
0.190687 0.835108 0 
0.522693 0.924777 0 
0.924855 0.477453 0 
0.476278 0.07653 0 
0.239387 0.73292 0 
0.730435 0.766275 0 
0.271172 0.229048 0 
0.0833541 0.525936 0 
0.767012 0.270627 0 
0.814221 0.352714 0 
0.351026 0.184564 0 
0.648382 0.816385 0 
0.114925 0.820807 0 
0.886045 0.182416 0 
0.817936 0.883986 0 
0.193993 0.107433 0 
0.572398 0.0525448 0 
0.0503675 0.719982 0 
0.952081 0.5692 0 
0.430573 0.951063 0 
0.0417941 0.277525 0 
0.176193 0.0350286 0 
0.955319 0.189444 0 
0.809433 0.953379 0 
0.0470473 0.810203 0 
0.219791 0.0411839 0 
0.0386156 0.160616 0 
0.948378 0.84888 0 
0.849317 0.0517469 0 
0.151154 0.948541 0 
0.646023 0.275392 0 
0.270921 0.34684 0 
0.723239 0.658609 0 
0.441413 0.578858 0 
0.336754 0.762684 0 
0.409515 0.46628 0 
0.144227 0.494606 0 
0.836402 0.505736 0 
0.495133 0.837189 0 
0.633749 0.164258 0 
0.496452 0.155631 0 
0.58162 0.539345 0 
0.523121 0.418503 0 
0.580803 0.684207 0 
0.462306 0.717757 0 
0.299142 0.574856 0 
0.283216 0.454125 0 
0.716267 0.536385 0 
0.672762 0.417118 0 
0.41645 0.325154 0 
0.525893 0.28756 0 
0.846471 0.621047 0 
0.362339 0.845817 0 
0.118722 0.283551 0 
0.93371 0.398756 0 
0.601065 0.934078 0 
0.396982 0.0701359 0 
0.885056 0.741992 0 
0.258819 0.88619 0 
0.748811 0.123457 0 
0.219102 0.589418 0 
0.59563 0.782801 0 
0.782579 0.405977 0 
0.0612721 0.418908 0 
0.152389 0.781193 0 
0.216281 0.158506 0 
0.786231 0.844554 0 
0.411513 0.209721 0 
0.844398 0.214616 0 
0.127027 0.656888 0 
0.363377 0.937161 0 
0.937985 0.635409 0 
0.6386 0.0586252 0 
0.769861 0.219614 0 
0.700946 0.0596276 0 
0.947348 0.702428 0 
0.297381 0.947551 0 
0.674846 0.865777 0 
0.862934 0.325463 0 
0.325715 0.13652 0 
0.27426 0.0511699 0 
0.726352 0.953014 0 
0.95275 0.270806 0 
0.0474067 0.574302 0 
0.066909 0.670258 0 
0.480562 0.952166 0 
0.952561 0.519494 0 
0.519737 0.0500691 0 
0.192292 0.695607 0 
0.10126 0.727302 0 
0.111267 0.195232 0 
0.771009 0.323059 0 
0.67769 0.775825 0 
0.321472 0.223868 0 
0.0438374 0.329004 0 
0.830263 0.130957 0 
0.0356093 0.770391 0 
0.867071 0.827975 0 
0.172142 0.867598 0 
0.188301 0.0725254 0 
0.894762 0.157248 0 
0.106093 0.844062 0 
0.159303 0.101178 0 
0.842513 0.893466 0 
0.0355741 0.842438 0 
0.841879 0.964518 0 
0.96532 0.15777 0 
0.0891245 0.81488 0 
0.913317 0.186997 0 
0.812483 0.910569 0 
0.148687 0.0347709 0 
0.506585 0.576926 0 
0.199047 0.350284 0 
0.589938 0.454335 0 
0.358611 0.617837 0 
0.444519 0.395628 0 
0.322315 0.685778 0 
0.598532 0.309237 0 
0.663076 0.343368 0 
0.691473 0.605229 0 
0.649036 0.674711 0 
0.646779 0.553227 0 
0.788731 0.66756 0 
0.353791 0.44749 0 
0.339346 0.341672 0 
0.445805 0.639297 0 
0.404371 0.725961 0 
0.436264 0.51924 0 
0.22018 0.775674 0 
0.226602 0.220339 0 
0.775582 0.78334 0 
0.700284 0.261661 0 
0.744511 0.423365 0 
0.289441 0.747799 0 
0.623266 0.230796 0 
0.263459 0.38337 0 
0.152309 0.417262 0 
0.572211 0.736008 0 
0.811189 0.468252 0 
0.533615 0.813084 0 
0.565983 0.1677 0 
0.39845 0.277641 0 
0.130335 0.238007 0 
0.469035 0.186069 0 
0.487834 0.3034 0 
0.514973 0.219717 0 
0.688537 0.712324 0 
0.245439 0.296385 0 
0.506092 0.698813 0 
0.469897 0.789941 0 
0.788487 0.529392 0 
0.703769 0.497816 0 
0.846659 0.583106 0 
0.425832 0.847618 0 
0.206393 0.475952 0 
0.32584 0.816175 0 
0.780869 0.0911165 0 
0.51616 0.105926 0 
0.855283 0.700561 0 
0.705772 0.140407 0 
0.619986 0.122859 0 
0.481471 0.898094 0 
0.898668 0.518918 0 
0.0650904 0.372645 0 
0.29517 0.500116 0 
0.0814882 0.468239 0 
0.0989136 0.581535 0 
0.22316 0.910833 0 
0.910436 0.777242 0 
0.13455 0.615447 0 
0.893812 0.636296 0 
0.359578 0.892819 0 
0.701656 0.817486 0 
0.298852 0.182672 0 
0.814512 0.299692 0 
0.858239 0.376659 0 
0.376346 0.141702 0 
0.623706 0.859489 0 
0.896355 0.262822 0 
0.727248 0.90403 0 
0.274006 0.100872 0 
0.246064 0.675258 0 
0.817026 0.246451 0 
0.175712 0.146989 0 
0.557576 0.950053 0 
0.441334 0.0513897 0 
0.949986 0.442424 0 
0.0439104 0.629286 0 
0.970244 0.383555 0 
0.373985 0.0346991 0 
0.616264 0.97043 0 
0.235432 0.630543 0 
0.255887 0.561188 0 
0.963127 0.665048 0 
0.334516 0.962954 0 
0.66485 0.0359455 0 
0.769829 0.168855 0 
0.77341 0.366994 0 
0.635814 0.776222 0 
0.125245 0.759091 0 
0.529968 0.87762 0 
0.877285 0.470457 0 
0.217367 0.128065 0 
0.789966 0.879248 0 
0.882829 0.212658 0 
0.962947 0.317552 0 
0.328516 0.0400351 0 
0.681281 0.963538 0 
0.12315 0.5183 0 
0.771184 0.965519 0 
0.967198 0.227082 0 
0.467759 0.121585 0 
0.0356176 0.529369 0 
0.0813106 0.301534 0 
0.146492 0.827307 0 
0.826435 0.852739 0 
0.853602 0.172708 0 
0.716003 0.0999211 0 
0.0867922 0.696112 0 
0.294899 0.905254 0 
0.904179 0.705012 0 
0.0765465 0.212247 0 
0.15076 0.683338 0 
0.367918 0.97111 0 
0.971487 0.631701 0 
0.118253 0.692903 0 
0.632881 0.0276813 0 
0.0256604 0.423292 0 
0.810632 0.197215 0 
0.266282 0.966738 0 
0.966613 0.733759 0 
0.734143 0.0359332 0 
0.0206027 0.825753 0 
0.825397 0.979517 0 
0.980184 0.174254 0 
0.032149 0.673912 0 
0.542186 0.35503 0 
0.556084 0.623099 0 
0.386501 0.553421 0 
0.468755 0.441779 0 
0.323526 0.401444 0 
0.758687 0.608601 0 
0.305309 0.290708 0 
0.746627 0.719794 0 
0.68464 0.218975 0 
0.317416 0.641322 0 
0.190048 0.529875 0 
0.688891 0.311855 0 
0.569146 0.269298 0 
0.54012 0.459091 0 
0.300716 0.859134 0 
0.623703 0.418407 0 
0.373057 0.799317 0 
0.470579 0.605275 0 
0.15157 0.340379 0 
0.0359523 0.459588 0 
0.284092 0.70561 0 
0.184391 0.751657 0 
0.247237 0.181133 0 
0.754184 0.820437 0 
0.0843209 0.252796 0 
0.49083 0.541648 0 
0.797061 0.623967 0 
0.365288 0.71285 0 
0.564591 0.906142 0 
0.905856 0.435531 0 
0.380744 0.49357 0 
0.389493 0.431821 0 
0.38657 0.23781 0 
0.103753 0.42276 0 
0.402396 0.638196 0 
0.434275 0.0949259 0 
0.239628 0.459737 0 
0.607709 0.575803 0 
0.613705 0.500729 0 
0.533778 0.539862 0 
0.187854 0.393033 0 
0.426166 0.700352 0 
0.901339 0.361246 0 
0.63832 0.902537 0 
0.361829 0.102095 0 
0.685207 0.673389 0 
0.175642 0.601889 0 
0.685246 0.565234 0 
0.263035 0.601002 0 
0.52846 0.182784 0 
0.522153 0.965318 0 
0.477543 0.0355755 0 
0.965401 0.477882 0 
0.816481 0.772356 0 
0.184616 0.237515 0 
0.230105 0.816936 0 
0.414288 0.371638 0 
0.168807 0.463415 0 
0.0840263 0.340593 0 
0.622715 0.345563 0 
0.687132 0.460492 0 
0.68562 0.37232 0 
0.239358 0.359898 0 
0.324891 0.468355 0 
0.622037 0.705291 0 
0.535787 0.144895 0 
0.213628 0.30451 0 
0.602897 0.196235 0 
0.658573 0.637039 0 
0.464073 0.674754 0 
0.449973 0.753894 0 
0.495088 0.747772 0 
0.749272 0.505315 0 
0.753191 0.544951 0 
0.32203 0.535996 0 
0.157531 0.275905 0 
0.457637 0.322253 0 
0.368592 0.311901 0 
0.733617 0.24027 0 
0.609877 0.0807815 0 
0.444337 0.825742 0 
0.822853 0.556446 0 
0.546428 0.701714 0 
0.229248 0.263119 0 
0.927552 0.542753 0 
0.45728 0.926468 0 
0.448141 0.864132 0 
0.865278 0.553359 0 
0.861966 0.658603 0 
0.742855 0.0758179 0 
0.928428 0.739635 0 
0.260572 0.928864 0 
[...]
CELL_DATA 1342
POINT_DATA 712
SCALARS temp float
LOOKUP_TABLE default
1.23106
1.23106
0.768941
0.768941
1.23106
1.23106
1.23106
1.23106
1.23106
1.23106
1.23106
1.23106
1.23106
1.23106
1.23106
1.23106
1.23106
1.23106
1.23106
1.23106
1.23106
1.23106
1.23106
1.21095
1.18997
1.16819
1.14566
1.12246
1.09869
1.07444
1.04983
1.02498
1
0.975021
0.950166
0.925557
0.901312
0.877541
0.854344
0.831812
0.810026
0.78905
0.768941
0.768941
0.768941
0.768941
0.768941
0.768941
0.768941
0.768941
0.768941
0.768941
0.768941
0.768941
0.768941
0.768941
0.768941
0.768941
0.768941
0.768941
0.768941
0.78905
0.810026
0.831812
0.854344
0.877541
0.901312
0.925557
0.950166
0.975021
1
1.02498
1.04983
1.07444
1.09869
1.12246
1.14566
1.16819
1.18997
1.21095
1.00355
1.16779
0.817443
0.821204
1.17332
0.782162
0.781649
1.21803
1.21806
1.06513
0.887642
0.914548
1.1203
1.15199
0.79596
0.849328
1.20036
1.20165
0.797657
1.19527
0.804135
1.0164
0.972931
0.862688
1.10594
1.11973
0.897787
0.820922
1.15933
1.19964
1.16218
0.792544
0.831249
0.803122
0.815861
1.20269
1.17983
1.12868
1.21037
0.863397
0.783749
0.785493
0.798568
1.19852
1.21189
0.798249
1.2169
0.783776
1.20185
0.884101
0.986543
0.998023
1.14467
1.04495
1.038
0.957472
0.821033
1.16036
0.877093
1.09539
0.847738
1.17882
0.972529
0.798515
1.12765
1.17436
0.793214
0.864017
0.819189
0.78622
1.18247
1.21492
0.81708
1.17946
0.781781
1.2152
1.22079
0.782463
0.846868
0.806925
0.834593
1.19481
1.14825
1.16997
1.20217
1.18544
0.808638
0.821106
1.05757
0.936294
1.05963
0.897439
1.06484
1.15604
0.900248
1.03316
1.01046
1.20069
0.916818
0.812193
0.926854
1.16518
1.18624
0.799939
1.09164
0.918932
0.850477
1.13865
0.837078
0.78436
1.00497
1.16817
0.8768
0.873439
1.12272
0.983434
1.11687
1.06568
1.11602
0.829551
0.841142
1.14159
0.807274
1.17287
1.21328
0.891959
0.967242
0.788501
1.11058
1.21437
1.1503
0.78718
0.848674
1.21426
1.16114
0.831819
1.20633
0.787718
1.11866
1.10984
0.920966
0.955146
0.865988
1.01484
0.997378
0.990062
0.835033
1.14544
1.15326
0.978542
1.03894
0.876615
0.903096
0.964731
1.02751
0.994917
1.04722
1.07593
1.08749
0.935053
0.816455
1.09587
1.05235
0.796659
1.2018
0.881602
0.811463
1.1926
0.957782
0.874914
1.05131
1.04589
0.865793
1.16318
0.829545
1.15564
1.14479
0.930714
0.807091
0.935709
1.21332
1.14867
1.20293
0.897811
0.785741
0.828481
1.08724
1.18266
1.21408
0.788656
1.10977
0.962645
0.914295
0.791469
0.992362
1.21715
0.910598
0.890256
1.14822
1.09486
0.87163
1.1445
1.08344
1.17158
0.865624
0.845075
0.827321
1.19961
1.16964
0.836472
1.19401
0.815186
0.834299
0.783272
1.16391
0.847174
1.15093
0.805758
1.22014
0.971811
1.06466
1.01983
0.929866
1.05281
0.898804
1.07888
1.07258
0.959229
0.894784
0.965129
0.934829
1.02618
1.0638
0.924992
0.896658
0.985137
0.868386
1.13538
0.859905
1.10501
1.03041
0.865483
1.16358
1.01527
1.04684
0.911402
1.02069
0.857811
1.19104
1.14766
1.12426
1.18058
1.11294
1.15765
0.883781
1.0678
0.897763
0.855974
0.983782
1.00776
0.967308
0.83623
0.993478
0.852519
1.19721
1.19997
0.897462
1.14765
1.20368
0.818956
0.999775
1.0616
0.993548
1.00748
0.957853
0.806917
0.866906
0.94565
0.93165
0.811758
0.842412
1.15023
1.09332
1.06691
1.18873
0.836717
1.12291
0.811888
1.20141
0.916737
1.10691
1.18149
0.787823
1.20819
1.02959
0.935607
1.05812
1.21017
0.778536
0.934082
0.964983
0.916954
0.784717
1.22107
1.15553
1.08845
0.875501
0.87037
0.82618
1.0125
1.18516
0.821406
1.1395
1.09605
1.22682
0.788488
0.980969
0.78282
1.13205
1.19712
0.987964
1.09665
0.846048
0.839723
1.1598
1.19265
0.913057
0.806008
0.886619
1.14235
0.900178
0.774727
0.933694
0.896145
1.21093
1.03745
1.15037
0.783654
0.888586
1.22521
0.841999
0.777151
1.15647
0.912772
1.04393
0.931751
0.960716
1.04401
1.04969
0.945252
1.08472
0.880398
1.13455
0.934027
0.99311
1.09948
1.13473
1.02053
0.82228
1.04
0.860405
0.953195
1.08919
1.01272
0.915025
0.853344
1.1415
0.83145
1.11776
0.978068
0.924107
0.884822
0.808966
1.03324
0.997916
1.04
1.13449
1.0301
0.918353
1.19706
1.02478
0.97679
1.00493
0.979705
1.06074
0.890274
1.07763
0.809503
1.18581
0.920894
0.973845
0.972595
0.967661
1.11632
0.780663
1.21225
1.00492
0.863796
1.13151
0.844351
1.05897
0.986637
1.08648
1.0902
1.00955
1.05682
1.04431
1.04347
0.878532
1.16208
1.11036
1.16016
0.946732
0.936131
0.885878
0.867868
0.979722
0.999279
0.968574
1.11712
1.10434
1.07423
1.14866
1.20337
0.842756
0.97925
0.904056
1.11652
0.982654
0.798711
0.835062
0.986203
0.934372
1.19384
0.879354
0.794818
1.1966
0.948418
0.795481
0.862897
1.07657
0.861419
1.09676
0.944841
0.835017
1.17639
0.905006
1.0896
0.982171
0.867266
0.862957
0.921668
1.02285
1.15564
1.16718
0.861669
0.824753
1.08884
0.812471
1.08512
1.17726
1.19506
1.1675
1.18816
1.17046
1.10989
0.806479
0.851725
0.850779
1.03124
1.21058
1.07105
0.790065
0.777945
1.21619
1.03897
0.941848
0.864844
1.05216
0.846445
1.00123
0.923217
0.801434
0.856483
1.15851
0.850683
0.855031
1.11647
1.12035
1.19305
1.07034
1.18507
0.817188
0.94156
0.99873
1.05461
0.952053
1.06629
0.97041
1.0108
1.05918
1.11852
0.950311
0.933156
1.0663
0.943525
1.11587
1.05998
1.02237
0.928866
1.06941
0.847261
0.989453
0.942087
1.02748
1.01075
0.817243
1.05658
1.07146
1.02615
0.977131
1.08655
0.915073
1.08908
1.1937
0.902155
0.954964
1.01892
0.97795
0.955225
1.11019
0.885733
0.828602
1.07975
1.17189
0.959748
0.82589
0.987517
1.02906
1.1131
0.981256
0.903552
1.05116
1.08971
1.14434
0.906995
0.910372
1.08978
0.878561
1.08932
1.07633
1.11691
0.921364
0.981907
0.871178
1.06937
1.02305
0.936311
0.920753
0.94017
1.06829
0.928946
1.10224
1.13521
0.955737
1.16445
0.872362
0.826522
1.13534
1.15345
0.987
1.05958
0.861812
1.06731
0.966405
1.03869
1.0018
0.897529
1.1439
1.01889
0.847304
1.00177
0.966465
0.999266
1.10693
1.08097
1.13164
1.15338
0.886694
0.893811
0.946889
0.783536
1.21689
1.03518
1.00708
1.02863
1.1796
1.0546
0.888283
0.8893
1.13271
1.0644
0.9792
1.09701
1.04575
0.936676
1.14961
0.964608
1.06608
1.06413
0.996782
0.982436
0.933985
0.9089
1.03882
0.983257
1.02996
0.903113
1.00993
0.936015
1.09897
0.994981
0.998834
0.82831
1.1544
1.15722
1.00983
0.819288
1.11506
1.08688
1.00321
1.05801
