# vtk DataFile Version 2.0
HEAT EQUATION
ASCII
DATASET UNSTRUCTURED_GRID
POINTS 2765 float
0 0 0 
1 0 0 
1 1 0 
0 1 0 
0.05 0 0 
0.1 0 0 
0.15 0 0 
0.2 0 0 
0.25 0 0 
0.3 0 0 
0.35 0 0 
0.4 0 0 
0.45 0 0 
0.5 0 0 
0.55 0 0 
0.6 0 0 
0.65 0 0 
0.7 0 0 
0.75 0 0 
0.8 0 0 
0.85 0 0 
0.9 0 0 
0.95 0 0 
1 0.05 0 
1 0.1 0 
1 0.15 0 
1 0.2 0 
1 0.25 0 
1 0.3 0 
1 0.35 0 
1 0.4 0 
1 0.45 0 
1 0.5 0 
1 0.55 0 
1 0.6 0 
1 0.65 0 
1 0.7 0 
1 0.75 0 
1 0.8 0 
1 0.85 0 
1 0.9 0 
1 0.95 0 
0.95 1 0 
0.9 1 0 
0.85 1 0 
0.8 1 0 
0.75 1 0 
0.7 1 0 
0.65 1 0 
0.6 1 0 
0.55 1 0 
0.5 1 0 
0.45 1 0 
0.4 1 0 
0.35 1 0 
0.3 1 0 
0.25 1 0 
0.2 1 0 
0.15 1 0 
0.1 1 0 
0.05 1 0 
0 0.95 0 
0 0.9 0 
0 0.85 0 
0 0.8 0 
0 0.75 0 
0 0.7 0 
0 0.65 0 
0 0.6 0 
0 0.55 0 
0 0.5 0 
0 0.45 0 
0 0.4 0 
0 0.35 0 
0 0.3 0 
0 0.25 0 
0 0.2 0 
0 0.15 0 
0 0.1 0 
0 0.05 0 
0.506999 0.498671 0 
0.128644 0.130167 0 
0.13034 0.874513 0 
0.873757 0.869449 0 
0.870372 0.125743 0 
0.032095 0.966901 0 
0.966857 0.967912 0 
0.0327483 0.0328187 0 
0.967926 0.0331516 0 
0.725637 0.350394 0 
0.656395 0.736916 0 
0.274174 0.638193 0 
0.346762 0.266219 0 
0.0759287 0.173872 0 
0.188041 0.931161 0 
0.93095 0.812104 0 
0.813483 0.0694889 0 
0.0857834 0.0734093 0 
0.91282 0.929293 0 
0.929517 0.0871615 0 
0.0706969 0.913161 0 
0.204039 0.431694 0 
0.781392 0.576096 0 
0.421199 0.786459 0 
0.55839 0.217333 0 
0.855241 0.279012 0 
0.146352 0.723557 0 
0.725185 0.862147 0 
0.276125 0.140636 0 
0.151414 0.0622321 0 
0.933155 0.155294 0 
0.844355 0.93193 0 
0.068006 0.845481 0 
0.112606 0.920747 0 
0.92039 0.887368 0 
0.887746 0.0795476 0 
0.0783402 0.122703 0 
0.0414739 0.231377 0 
0.777029 0.0437402 0 
0.957621 0.775938 0 
0.224181 0.957763 0 
0.0741178 0.956371 0 
0.956245 0.925887 0 
0.0427131 0.0768263 0 
0.925957 0.0437685 0 
0.0365251 0.927846 0 
0.0713895 0.0374717 0 
0.927706 0.963483 0 
0.963563 0.0722939 0 
0.501598 0.659309 0 
0.340306 0.500489 0 
0.660732 0.494392 0 
0.722858 0.193723 0 
0.485542 0.343198 0 
0.858407 0.42472 0 
0.144835 0.572974 0 
0.575818 0.859192 0 
0.423866 0.140276 0 
0.815636 0.72665 0 
0.192161 0.278338 0 
0.278522 0.817149 0 
0.570652 0.113316 0 
0.907358 0.563105 0 
0.436717 0.904931 0 
0.927928 0.225027 0 
0.230642 0.0887988 0 
0.770169 0.921379 0 
0.080921 0.771308 0 
0.0426327 0.879993 0 
0.879576 0.957367 0 
0.957735 0.120332 0 
0.117947 0.0422312 0 
0.965092 0.882534 0 
0.0318012 0.121958 0 
0.117472 0.965204 0 
0.882645 0.034948 0 
0.817987 0.033045 0 
0.182518 0.967456 0 
0.967375 0.817536 0 
0.157383 0.906506 0 
0.906138 0.842662 0 
0.843833 0.0934807 0 
0.0464154 0.195584 0 
0.105575 0.157303 0 
0.11989 0.0885007 0 
0.912258 0.120738 0 
0.879121 0.911635 0 
0.0882494 0.879884 0 
0.603772 0.383883 0 
0.617213 0.618762 0 
0.382495 0.392558 0 
0.396254 0.681115 0 
0.114793 0.374045 0 
0.458219 0.242908 0 
0.532799 0.756595 0 
0.761832 0.477358 0 
0.251588 0.518473 0 
0.682562 0.0994648 0 
0.887402 0.674245 0 
0.323889 0.888927 0 
0.0912322 0.632438 0 
0.81094 0.160088 0 
0.316964 0.0876644 0 
0.685043 0.917441 0 
0.915042 0.312585 0 
0.170105 0.64749 0 
0.834809 0.809985 0 
0.156149 0.195547 0 
0.190687 0.835108 0 
0.522693 0.924777 0 
0.924855 0.477453 0 
0.476278 0.07653 0 
0.239387 0.73292 0 
0.730435 0.766275 0 
0.271172 0.229048 0 
0.0833541 0.525936 0 
0.767012 0.270627 0 
0.814221 0.352714 0 
0.351026 0.184564 0 
0.648382 0.816385 0 
0.114925 0.820807 0 
0.886045 0.182416 0 
0.817936 0.883986 0 
0.193993 0.107433 0 
0.572398 0.0525448 0 
0.0503675 0.719982 0 
0.952081 0.5692 0 
0.430573 0.951063 0 
0.0417941 0.277525 0 
0.176193 0.0350286 0 
0.955319 0.189444 0 
0.809433 0.953379 0 
0.0470473 0.810203 0 
0.219791 0.0411839 0 
0.0386156 0.160616 0 
0.948378 0.84888 0 
0.849317 0.0517469 0 
0.151154 0.948541 0 
0.646023 0.275392 0 
0.270921 0.34684 0 
0.723239 0.658609 0 
0.441413 0.578858 0 
0.336754 0.762684 0 
0.409515 0.46628 0 
0.144227 0.494606 0 
0.836402 0.505736 0 
0.495133 0.837189 0 
0.633749 0.164258 0 
0.496452 0.155631 0 
0.58162 0.539345 0 
0.523121 0.418503 0 
0.580803 0.684207 0 
0.462306 0.717757 0 
0.299142 0.574856 0 
0.283216 0.454125 0 
0.716267 0.536385 0 
0.672762 0.417118 0 
0.41645 0.325154 0 
0.525893 0.28756 0 
0.846471 0.621047 0 
0.362339 0.845817 0 
0.118722 0.283551 0 
0.93371 0.398756 0 
0.601065 0.934078 0 
0.396982 0.0701359 0 
0.885056 0.741992 0 
0.258819 0.88619 0 
0.748811 0.123457 0 
0.219102 0.589418 0 
0.59563 0.782801 0 
0.782579 0.405977 0 
0.0612721 0.418908 0 
0.152389 0.781193 0 
0.216281 0.158506 0 
0.786231 0.844554 0 
0.411513 0.209721 0 
0.844398 0.214616 0 
0.127027 0.656888 0 
0.363377 0.937161 0 
0.937985 0.635409 0 
0.6386 0.0586252 0 
0.769861 0.219614 0 
0.700946 0.0596276 0 
0.947348 0.702428 0 
0.297381 0.947551 0 
0.674846 0.865777 0 
0.862934 0.325463 0 
0.325715 0.13652 0 
0.27426 0.0511699 0 
0.726352 0.953014 0 
0.95275 0.270806 0 
0.0474067 0.574302 0 
0.066909 0.670258 0 
0.480562 0.952166 0 
0.952561 0.519494 0 
0.519737 0.0500691 0 
0.192292 0.695607 0 
0.10126 0.727302 0 
0.111267 0.195232 0 
0.771009 0.323059 0 
0.67769 0.775825 0 
0.321472 0.223868 0 
0.0438374 0.329004 0 
0.830263 0.130957 0 
0.0356093 0.770391 0 
0.867071 0.827975 0 
0.172142 0.867598 0 
0.188301 0.0725254 0 
0.894762 0.157248 0 
0.106093 0.844062 0 
0.159303 0.101178 0 
0.842513 0.893466 0 
0.0355741 0.842438 0 
0.841879 0.964518 0 
0.96532 0.15777 0 
0.0891245 0.81488 0 
0.913317 0.186997 0 
0.812483 0.910569 0 
0.148687 0.0347709 0 
0.506585 0.576926 0 
0.199047 0.350284 0 
0.589938 0.454335 0 
0.358611 0.617837 0 
0.444519 0.395628 0 
0.322315 0.685778 0 
0.598532 0.309237 0 
0.663076 0.343368 0 
0.691473 0.605229 0 
0.649036 0.674711 0 
0.646779 0.553227 0 
0.788731 0.66756 0 
0.353791 0.44749 0 
0.339346 0.341672 0 
0.445805 0.639297 0 
0.404371 0.725961 0 
0.436264 0.51924 0 
0.22018 0.775674 0 
0.226602 0.220339 0 
0.775582 0.78334 0 
0.700284 0.261661 0 
0.744511 0.423365 0 
0.289441 0.747799 0 
0.623266 0.230796 0 
0.263459 0.38337 0 
0.152309 0.417262 0 
0.572211 0.736008 0 
0.811189 0.468252 0 
0.533615 0.813084 0 
0.565983 0.1677 0 
0.39845 0.277641 0 
0.130335 0.238007 0 
0.469035 0.186069 0 
0.487834 0.3034 0 
0.514973 0.219717 0 
0.688537 0.712324 0 
0.245439 0.296385 0 
0.506092 0.698813 0 
0.469897 0.789941 0 
0.788487 0.529392 0 
0.703769 0.497816 0 
0.846659 0.583106 0 
0.425832 0.847618 0 
0.206393 0.475952 0 
0.32584 0.816175 0 
0.780869 0.0911165 0 
0.51616 0.105926 0 
0.855283 0.700561 0 
0.705772 0.140407 0 
0.619986 0.122859 0 
0.481471 0.898094 0 
0.898668 0.518918 0 
0.0650904 0.372645 0 
0.29517 0.500116 0 
0.0814882 0.468239 0 
0.0989136 0.581535 0 
0.22316 0.910833 0 
0.910436 0.777242 0 
0.13455 0.615447 0 
0.893812 0.636296 0 
0.359578 0.892819 0 
0.701656 0.817486 0 
0.298852 0.182672 0 
0.814512 0.299692 0 
0.858239 0.376659 0 
0.376346 0.141702 0 
0.623706 0.859489 0 
0.896355 0.262822 0 
0.727248 0.90403 0 
0.274006 0.100872 0 
0.246064 0.675258 0 
0.817026 0.246451 0 
0.175712 0.146989 0 
0.557576 0.950053 0 
0.441334 0.0513897 0 
0.949986 0.442424 0 
0.0439104 0.629286 0 
0.970244 0.383555 0 
0.373985 0.0346991 0 
0.616264 0.97043 0 
0.235432 0.630543 0 
0.255887 0.561188 0 
0.963127 0.665048 0 
0.334516 0.962954 0 
0.66485 0.0359455 0 
0.769829 0.168855 0 
0.77341 0.366994 0 
0.635814 0.776222 0 
0.125245 0.759091 0 
0.529968 0.87762 0 
0.877285 0.470457 0 
0.217367 0.128065 0 
0.789966 0.879248 0 
0.882829 0.212658 0 
0.962947 0.317552 0 
0.328516 0.0400351 0 
0.681281 0.963538 0 
0.12315 0.5183 0 
0.771184 0.965519 0 
0.967198 0.227082 0 
0.467759 0.121585 0 
0.0356176 0.529369 0 
0.0813106 0.301534 0 
0.146492 0.827307 0 
0.826435 0.852739 0 
0.853602 0.172708 0 
0.716003 0.0999211 0 
0.0867922 0.696112 0 
0.294899 0.905254 0 
0.904179 0.705012 0 
0.0765465 0.212247 0 
0.15076 0.683338 0 
0.367918 0.97111 0 
0.971487 0.631701 0 
0.118253 0.692903 0 
0.632881 0.0276813 0 
0.0256604 0.423292 0 
0.810632 0.197215 0 
0.266282 0.966738 0 
0.966613 0.733759 0 
0.734143 0.0359332 0 
0.0206027 0.825753 0 
0.825397 0.979517 0 
0.980184 0.174254 0 
0.032149 0.673912 0 
0.542186 0.35503 0 
0.556084 0.623099 0 
0.386501 0.553421 0 
0.468755 0.441779 0 
0.323526 0.401444 0 
0.758687 0.608601 0 
0.305309 0.290708 0 
0.746627 0.719794 0 
0.68464 0.218975 0 
0.317416 0.641322 0 
0.190048 0.529875 0 
0.688891 0.311855 0 
0.569146 0.269298 0 
0.54012 0.459091 0 
0.300716 0.859134 0 
0.623703 0.418407 0 
0.373057 0.799317 0 
0.470579 0.605275 0 
0.15157 0.340379 0 
0.0359523 0.459588 0 
0.284092 0.70561 0 
0.184391 0.751657 0 
0.247237 0.181133 0 
0.754184 0.820437 0 
0.0843209 0.252796 0 
0.49083 0.541648 0 
0.797061 0.623967 0 
0.365288 0.71285 0 
0.564591 0.906142 0 
0.905856 0.435531 0 
0.380744 0.49357 0 
0.389493 0.431821 0 
0.38657 0.23781 0 
0.103753 0.42276 0 
0.402396 0.638196 0 
0.434275 0.0949259 0 
0.239628 0.459737 0 
0.607709 0.575803 0 
0.613705 0.500729 0 
0.533778 0.539862 0 
0.187854 0.393033 0 
0.426166 0.700352 0 
0.901339 0.361246 0 
0.63832 0.902537 0 
0.361829 0.102095 0 
0.685207 0.673389 0 
0.175642 0.601889 0 
0.685246 0.565234 0 
0.263035 0.601002 0 
0.52846 0.182784 0 
0.522153 0.965318 0 
0.477543 0.0355755 0 
0.965401 0.477882 0 
0.816481 0.772356 0 
0.184616 0.237515 0 
0.230105 0.816936 0 
0.414288 0.371638 0 
0.168807 0.463415 0 
0.0840263 0.340593 0 
0.622715 0.345563 0 
0.687132 0.460492 0 
0.68562 0.37232 0 
0.239358 0.359898 0 
0.324891 0.468355 0 
0.622037 0.705291 0 
0.535787 0.144895 0 
0.213628 0.30451 0 
0.602897 0.196235 0 
0.658573 0.637039 0 
0.464073 0.674754 0 
0.449973 0.753894 0 
0.495088 0.747772 0 
0.749272 0.505315 0 
0.753191 0.544951 0 
0.32203 0.535996 0 
0.157531 0.275905 0 
0.457637 0.322253 0 
0.368592 0.311901 0 
0.733617 0.24027 0 
0.609877 0.0807815 0 
0.444337 0.825742 0 
0.822853 0.556446 0 
0.546428 0.701714 0 
0.229248 0.263119 0 
0.927552 0.542753 0 
0.45728 0.926468 0 
0.448141 0.864132 0 
0.865278 0.553359 0 
0.861966 0.658603 0 
0.742855 0.0758179 0 
0.928428 0.739635 0 
0.260572 0.928864 0 
[...]
CELL_DATA 1342
POINT_DATA 2765
SCALARS temp float
LOOKUP_TABLE default
-7.39712e-13
-1.42832e-12
-6.49687e-13
-1.84498e-12
-1.12645e-12
1.12581e-11
8.91433e-11
1.54031e-10
7.97428e-11
5.942e-11
2.57925e-10
9.86751e-11
3.7673e-12
1.58921e-10
2.23981e-10
3.81024e-10
-4.9721e-11
-1.11981e-10
1.86174e-10
-2.8331e-11
1.14006e-10
1.7702e-11
-8.04792e-12
-1.65887e-12
-3.04706e-11
-5.76415e-11
-2.01497e-11
-4.70333e-11
-2.75914e-10
-1.27304e-10
-1.39595e-10
-1.45927e-10
-9.94588e-11
-3.38394e-10
-4.16844e-10
-2.70441e-11
-2.64479e-10
-2.99544e-11
-7.31975e-11
-1.06461e-11
1.50671e-11
1.28891e-11
-9.85957e-12
-1.28574e-11
4.1846e-12
-6.13252e-11
-1.4766e-10
4.28753e-11
-3.22749e-10
-1.05599e-10
-3.95559e-11
-1.30414e-10
-9.26093e-11
-2.89379e-10
4.30109e-11
1.22033e-10
-9.81708e-11
-6.004e-12
-9.04169e-11
-3.31065e-11
-8.77936e-12
8.35023e-12
3.00279e-11
5.53061e-11
3.23937e-11
6.32609e-11
3.63921e-10
8.47819e-11
2.01261e-10
6.04361e-10
6.23076e-11
2.96773e-11
8.48819e-11
-2.86448e-12
1.49521e-10
1.44402e-10
2.46841e-10
-2.21419e-11
-2.37718e-11
-1.07717e-11
-0.000644254
-0.00157439
-0.000110826
-0.000262962
-0.00199314
-0.000212075
-0.000135251
6.8392e-05
-0.000223806
0.0286123
-0.0020083
-0.013681
0.00593642
-0.00396849
-0.000801117
-0.000448896
-0.00150973
-0.00450815
-0.000300563
-0.000114673
-0.00134463
-0.0157255
0.015025
-0.0162082
-0.0171026
0.0161358
-0.00396441
0.000522781
-0.0077354
0.000224173
0.000463423
-0.00032311
-0.00095808
-0.000484906
-7.74591e-05
-0.00178058
-0.00319894
-0.00257531
-0.00121735
-0.000238919
-0.00103474
-0.000845659
-0.00016942
-0.000474725
-0.00015784
-0.000277864
-0.000818027
-0.000134929
-0.000322529
0.00116751
-0.00717291
0.00688894
0.0204672
-0.0138126
0.00951902
-0.00583273
-0.00305042
0.00711563
0.00407921
-0.00902006
-0.0114995
0.00913572
0.00540665
-0.000614535
0.00133713
-0.00817712
-0.00100071
-0.00303898
-0.000429769
-0.000274558
-0.000498768
-0.000763293
-0.000302486
-0.00061568
-0.000277239
0.000668775
-0.00101199
-0.000621026
-0.000272961
-0.000727752
-0.00016717
-0.000889349
-0.0012728
-0.00117385
-0.00227931
-0.00109299
-9.64854e-05
8.53774e-05
0.0059893
-0.000577872
-0.00227377
-0.00206729
-0.0206925
-0.00400658
-0.00460338
0.00393193
-0.00636738
-0.0102461
0.00230984
-0.0014923
-0.00869005
0.00230763
-0.00895194
0.00133329
0.00419337
-0.0197529
0.000552628
0.00197478
-0.00191561
-0.00675051
0.0141978
0.011436
-0.0148293
-0.00209413
0.0120575
-0.00919513
-0.00599863
0.0368052
-0.0290384
0.011996
-0.000417368
0.000787154
-0.000744698
0.000971304
-0.0116936
-0.00266526
0.000887201
0.000693311
0.00116477
0.00177065
0.00103908
-0.000709518
-0.00110127
-0.00100784
-0.000913849
-0.000126035
-0.000928711
-0.000108092
0.00164685
-0.00938701
-0.00116847
-0.00213735
0.00353854
-0.00167025
-0.00632891
0.00102955
0.00616629
-0.0212962
-0.0154801
0.00541977
0.0035643
0.0162701
-0.00324452
-0.0054443
-0.00969377
0.00812555
0.0125065
-0.013384
0.0210045
0.00242844
-0.00247368
-0.00980258
0.0133236
-0.00155572
0.000995464
0.00516924
-0.00225438
0.00731461
-0.00431515
-0.00060991
0.00446392
-0.00666809
-0.00104037
-0.00157981
-0.000954559
0.00263869
-0.00228679
-0.0139479
0.00174932
0.00215707
-0.00399782
0.0119009
-0.00400956
-0.000400221
-0.000788809
0.00304043
0.00563006
-0.0119444
0.00374548
-0.00291337
0.0037387
-0.00574461
-0.000269805
-0.000729426
-0.000526832
-0.00319278
-0.0151399
-0.00179472
-0.000633445
0.011056
-0.00203763
0.00439499
-0.00364932
-0.0022038
-0.000501594
0.000464875
-0.00116338
-0.00644806
-0.000430149
-0.000423688
-0.00216031
-0.000127043
-0.000616611
-8.36616e-05
0.000188593
-8.74728e-05
0.000319102
0.000219954
-0.000994857
0.00183991
-0.0112169
0.0108308
-0.0100237
-0.000269387
-0.00731446
-0.00135915
0.004659
0.00710455
0.0023366
-7.16489e-05
0.00465101
-0.00228582
-0.0119299
-0.00267984
-0.0014265
-0.00247189
-0.00258823
0.00317089
-0.00191096
0.00331791
0.00582286
-0.0133339
-0.0141982
-0.00937231
-0.0151577
0.0203205
0.0116427
0.000976724
-0.0264737
-0.0200494
-0.0189146
-0.000783823
-0.00952646
-0.00102187
0.00117701
-0.0100598
-0.00253656
-0.00340485
0.00610437
0.0119004
0.00761193
0.00099318
-0.00429597
0.00110805
9.00231e-05
0.000245007
0.000197819
0.00767512
0.00290684
0.00321495
0.000376833
-0.00592295
-0.0151357
-0.0249849
-0.00574881
-0.00157263
0.000255534
0.00302362
-3.14019e-05
0.00230768
0.0167129
-0.0467891
-0.00527558
0.0155531
-0.0120522
0.00377856
0.00117866
0.00347653
-0.0149262
-0.000254904
-0.00946241
-0.003596
-0.00285462
0.00715193
0.00318812
-0.000931634
-5.09741e-06
-0.00187353
6.15768e-05
-0.00782705
-0.00421452
0.0001703
-6.40824e-05
-0.0025194
0.00172337
0.00118663
-0.000926051
-0.00187558
-0.00038275
0.0152564
-0.000290684
-0.00114928
-0.00254714
0.000384012
-0.00478963
0.000471703
-0.00225073
0.000308183
-0.00098655
-0.005163
-0.00147827
-0.00287469
-0.00130624
8.16062e-05
0.00305861
-0.00958959
-0.00191971
-0.00168774
3.89435e-05
0.000453397
5.50995e-05
-0.000530459
-0.000293877
-0.000821561
0.000312704
0.000211566
-0.00800052
-0.000135294
-0.000280671
-0.00121383
-0.000240686
5.40348e-05
-0.000196972
-0.0006399
-0.000655227
0.00864538
-0.00183522
-0.00330717
-0.0081963
0.00940842
-0.00190399
0.00854481
0.0056082
-0.0106086
-0.00689481
0.00292115
0.009922
0.00278208
-0.000336285
0.00948701
-5.11124e-06
-0.000148196
-0.00537019
-0.00421057
-0.00267786
0.00177392
-0.0200981
0.00647585
-0.00305708
0.00359514
0.0017868
-0.00579624
0.00501562
-0.00153854
-0.00195641
-0.00309965
-0.0138845
-0.0200797
-0.0116424
-0.0178169
-0.00427476
0.00470901
0.00855098
0.00184668
-0.0172216
-0.00278893
0.00372508
0.00762428
-0.0211797
0.00187058
-0.00211369
0.00309121
-0.00474231
0.00178141
0.00110665
-0.00464637
0.00146483
0.0025097
-0.00964759
-0.00552624
-0.00307364
-0.00852664
-0.00153537
0.0101072
0.00843805
0.00506656
-0.000382472
-0.00450134
0.00179003
-0.0129388
-0.00956979
-0.0111149
-0.00199466
0.00284341
0.00188711
0.00404468
0.0021745
8.706e-06
-0.00454326
-0.00362738
0.00706262
-0.0164754
0.00129359
-0.00806598
-0.000657849
0.0121391
-0.00248453
-0.01231
0.00263619
0.000571051
0.00437687
0.00734448
0.0016547
-0.00335346
0.000965519
2.94033e-05
-0.0111979
0.0059493
-0.00134993
0.0032025
0.00511495
0.00340956
0.0101631
1.23548e-05
0.00468121
-0.0122208
0.000359517
-0.0253219
-0.00164856
0.00361004
0.00383672
0.00238886
0.00456569
-0.0246735
-0.00299167
0.00289671
0.00125699
0.00099547
0.00446682
0.00202379
-0.0150673
-0.0141389
-0.00509286
-0.000550262
-0.00459287
-0.00824782
6.04561e-05
0.000335931
1.81667e-06
0.00145509
-0.00811949
-0.00347941
0.00243433
0.000682715
-0.00479788
-0.000645411
-0.00125578
0.00211831
0.00022941
0.00303579
-0.000643746
0.000548289
0.00147228
0.000690232
-0.0066433
0.000374941
0.00188912
-0.00195706
0.00289143
-0.000167538
-0.000130097
8.74464e-05
0.000110999
-0.00286463
0.000874441
0.00316818
0.00567581
0.00373327
-0.00332157
-0.00156953
-0.0071437
-0.0157087
0.00491513
0.00107547
-0.00436186
0.00109454
-0.0214783
-0.0103683
0.004489
0.00667791
-0.00831025
-0.000314142
-0.0024365
0.00116157
-0.00653881
-0.00115449
0.00538989
-0.00268551
-0.00887276
-0.00274326
0.00380605
-0.00700149
-0.000147203
-0.00516027
-0.0158042
0.00268326
0.00395379
-0.00164623
-0.00182679
0.00114512
-0.0079612
0.0027757
0.000729495
-0.00748115
-0.0162779
-0.00299304
0.006254
-0.00275975
-0.00375366
-0.00165413
-0.00229588
0.00361232
-0.00475889
-0.0111518
-0.00323898
0.00125134
0.00576782
-0.00881301
0.00224105
-0.00841994
-0.00206323
-0.00679801
-0.000876212
0.00275726
0.00658976
-0.0101053
-0.000572258
0.00124164
0.0029581
0.00287254
-0.00412333
-0.000394462
0.00217445
-0.0166005
0.000176114
-0.00270827
-0.00228361
0.000448171
-0.00222631
0.000242767
-0.000710104
0.000886533
-0.000294259
0.000807262
-0.000219233
-0.00437567
-0.00339126
0.00675318
-0.011856
-0.00195104
0.00579323
-0.00462909
0.00308285
0.000917725
-0.00165471
-0.00328793
-0.00651449
-0.00746075
0.00473133
0.001217
0.000347013
0.000400589
-0.00596705
-0.000872894
-0.00151944
-7.54126e-05
-0.00652969
-0.00274573
0.000505395
0.00273444
-0.00571958
-0.00121688
0.00213221
-0.00184226
-0.00489517
0.00419293
-0.0100614
0.00455772
-0.0147679
6.78125e-05
0.00268352
0.000425049
0.00833416
-0.000111334
-0.00481849
0.0019519
-0.00145862
0.00127874
-0.00240787
0.0023123
-0.00119042
-0.000477609
-0.00039328
0.000373881
-0.0146162
-0.00551723
0.00586268
0.00486895
-0.015506
0.00174223
0.000823936
-0.0029323
-1.39259e-11
-0.000232345
-0.000462224
-0.000283724
-0.000297548
-0.000566636
-0.00131906
-0.000300273
-0.00196704
0.00201589
-0.00066338
0.00292648
-0.00939822
-0.00447917
-0.0173383
-6.06242e-10
-0.00106423
-0.00285183
-0.00340715
-0.000185893
-0.00263764
-1.55489e-10
-0.00151344
-4.88053e-11
-3.1454e-05
1.64737e-05
-1.36115e-11
-0.00032831
-0.00035529
-0.000549518
-7.89169e-12
-0.000164802
-0.000346836
-1.7056e-11
-0.00140774
-0.000234724
-0.000988743
-3.71076e-10
-0.000259447
-0.0221064
-0.00232158
0.0142572
-0.0016702
-0.00024783
0.00284072
-0.00226752
0.00880114
3.21628e-10
0.00878625
-9.369e-05
-9.12487e-12
-0.000169365
-0.000455865
-2.88315e-11
-0.000287752
-0.000385327
-1.57603e-06
-6.5199e-05
-0.000266065
-0.000493242
-0.000405668
0.00326652
1.73761e-10
0.000451408
2.82648e-10
0.000967378
-0.000355417
0.0279225
0.0296163
0.0316717
-0.000672168
-0.000640903
-0.000634183
3.32933e-11
-0.000508951
1.54474e-11
-0.000519229
-0.000645607
-1.85546e-11
-0.000413633
-0.0002221
-0.000398145
-9.16901e-12
-0.000404116
-0.000420976
-0.000373274
-0.000359903
-0.000423166
0.000491145
-0.00027595
-0.000121855
0.000892561
0.00221649
0.0015977
0.000764679
0.00286582
5.37672e-10
0.00119623
0.000843823
6.73508e-10
6.35602e-05
0.00120951
-7.21794e-11
-0.000282624
0.00159993
1.00453e-11
-0.000441289
-0.000772575
2.72872e-05
-0.0012283
0.00150698
0.00053953
0.00353248
3.82327e-10
4.65615e-05
2.87508e-10
-0.000500152
0.000196067
0.0055481
0.00127817
-0.0037114
-0.00100225
-0.000449465
-0.00136785
4.20973e-11
-0.000355067
-1.03896e-11
-0.000443497
-0.000350379
-1.03515e-11
-0.000448781
-0.000472922
-0.000293592
-0.000345581
-0.000431048
2.15879e-10
-7.94282e-05
-0.000458784
-0.000580956
-0.000289534
-0.000661698
-3.09211e-05
-0.000401296
0.000109522
-0.000849686
-0.00193147
4.25727e-05
-0.00373862
-2.67042e-10
-0.00182288
-0.00141396
4.74485e-10
-0.0016528
0.000264533
-1.83606e-11
-0.000447531
-0.000554773
-0.000619707
-0.000853629
-0.00227221
-0.000562079
-0.000592944
-0.000944379
-0.000479669
-0.00051925
-0.00103506
-0.000830894
-0.00111885
-4.89358e-10
-0.00127994
-0.00144575
-0.00101668
-0.00276664
-0.000318723
-0.0013259
6.40595e-11
0.000487631
-9.38565e-10
0.00028066
-0.00673138
0.00121334
0.00488023
-3.72851e-10
-0.000496517
-0.000120076
-2.18547e-10
-0.0010878
-8.02154e-10
-0.00307499
-0.00235856
-0.00159321
-0.00995395
-6.76093e-07
-0.00118688
-0.00761499
-2.39339e-10
-0.00011215
-0.00301013
-0.0320085
-0.0237935
-0.0172298
-0.00165223
-0.00159081
-0.00221378
-1.49867e-10
-0.000529496
-2.49896e-10
0.000108668
-0.000445656
-0.000221862
-0.000527412
0.000668122
0.000340955
-0.000555352
1.22429e-10
-0.000201445
-0.000441127
-1.13005e-05
3.26062e-05
-0.00092968
-0.00190055
-0.0048647
0.0199909
0.032315
0.0152142
-0.000610436
-0.000712967
-1.40213e-10
-0.000651674
-0.000366941
-0.00037547
8.18822e-11
-0.000560393
-0.000925702
-0.000885764
-3.30607e-11
-0.000373971
-0.000640149
-0.000898471
-0.00105063
1.27583e-10
3.72453e-05
-1.08105e-10
-0.000308116
-9.99209e-05
-0.00101442
-0.000601691
-0.000432438
-0.00110213
0.000791715
-0.00160318
-0.000634383
-0.000319978
-0.00718464
-0.0103018
-0.00729466
-0.00235208
-0.000177992
0.00165205
-0.0211611
-0.0181426
-0.0221722
-0.000908558
-0.00220762
-0.00557481
-0.0035743
-0.00524716
-0.00704284
-0.00563389
-0.00134256
-0.0016873
-0.00128599
2.03136e-10
-0.00169059
-7.06373e-05
-9.22353e-05
-6.24121e-05
4.12605e-10
0.000912614
-0.0011731
0.00414254
0.00130817
1.30991e-11
-0.000384127
-0.000576273
-0.00175729
-0.00229272
-2.5894e-11
-0.00050946
-0.000609423
-4.07701e-05
2.51351e-05
9.25922e-12
-0.000371948
-3.00415e-05
3.20544e-06
-0.0012412
-5.02848e-11
-0.000353566
-0.000745897
-0.00205796
-0.00116962
-0.00678642
-0.0131104
-0.00468148
-3.37179e-10
-0.00183319
0.00661903
0.000285019
0.00577816
1.7336e-10
-0.000577713
-0.0255386
-0.0141433
-0.0250024
1.44607e-10
-0.000678029
-0.0160573
-0.00806641
-0.00361454
-4.48631e-10
-0.00153119
-0.000890117
-0.000332251
0.000948264
0.0297118
0.0219231
0.0125242
-0.00116828
-0.000669563
-0.000998425
-0.018201
-0.00870191
-0.0141577
-0.0003878
-0.000306385
-0.000155463
0.0025486
-0.000961787
0.0015781
-0.007143
-0.00253488
-0.00181148
-0.0166759
-0.00492434
-0.010473
-0.00572834
-0.00228277
-0.00355308
-0.000882904
-0.00483837
0.00021894
0.000203561
0.000831075
-0.00369818
-0.0038154
0.000567012
-0.00035812
-0.000327182
-0.000129468
-0.000483991
6.51809e-05
-0.000510337
-0.00172522
-0.00117658
-0.0012951
-0.00208195
-0.0019073
-0.00218251
-0.000683104
-0.0010482
-5.8706e-05
-0.00116665
-0.000559589
-0.000481892
-0.000639619
0.000524034
-0.00264689
-0.00285762
-0.0016968
-0.00149725
-0.0253763
-0.00729076
-0.0280331
-0.0349034
-0.0234476
-0.0287902
0.0313304
0.0137076
0.0253999
-0.0253534
-0.00206588
0.0150928
0.00676348
0.00111831
0.0080688
0.0113319
0.000664066
0.00456007
-0.00441985
-0.00490312
-0.00263836
-0.00844548
-0.0114783
-0.00535105
-7.93513e-11
-0.00181604
-0.00131405
6.74325e-11
-0.000352615
-0.000319394
-1.50711e-10
-0.00290335
-0.0019672
5.86686e-11
0.000847508
-0.00105972
-0.00170302
-0.00072095
-0.00144502
-0.000903295
-0.00100425
-0.00108993
-0.00151488
-0.00303901
-0.000718713
-0.000664904
-0.000357231
-0.000398323
-4.91278e-05
-0.00024205
0.000432794
-0.000375582
0.00657046
0.0047368
-0.00241172
-0.00188203
-0.0195481
-0.0112876
-0.00752623
-0.00119739
-0.00325985
-0.00115211
0.00197936
-0.00563035
0.0197667
0.0037601
0.00154242
-0.00484971
-0.00134662
-0.00327582
0.0268798
0.0144885
0.0145879
-0.00211508
-0.0113053
-0.00245666
-0.00148459
-0.00245445
0.0148457
0.0252013
0.00827344
0.0079277
0.00677833
0.00702008
-0.022054
-0.0154146
-3.0911e-10
-0.00339305
-0.00200047
-0.00120469
-0.00296311
-0.00463345
-0.00110894
-0.00078492
-0.00305816
-0.0281265
-0.0203001
-0.0280188
0.00513054
0.011176
0.0182757
0.000543774
0.000303626
-0.000131939
0.00186248
-0.00169502
0.00114959
-3.68195e-10
-0.00198846
-0.00300762
-0.000563813
-7.81828e-06
-0.000347201
-0.00128306
-0.021908
-0.00571549
-0.0210911
-3.84888e-10
-0.000125879
-0.0138474
-0.000493466
-0.0103764
0.0275287
0.0208235
0.0119692
2.24833e-10
-0.00034212
-0.000249899
-0.00696022
0.000171742
1.97518e-10
-0.00020777
0.0194849
0.0174374
0.00541125
0.000974192
-0.000181535
-0.0114134
0.000417122
0.00135309
-0.00533517
-0.00491315
-0.00791507
0.00141085
-0.00364567
-0.00198842
-0.000152333
0.000495884
-0.00320542
0.000626361
-0.00119476
-0.00236036
-0.00259774
-0.00198606
-0.00147776
-0.00142498
-0.000164191
-0.00069231
-0.000463096
-0.00033811
0.00191173
0.00123493
0.000798965
0.000234631
0.00100844
-0.00118106
-0.00253674
-0.000426808
-0.000443883
-0.0021865
-0.000432238
-0.00144471
-0.00117134
0.00206501
0.000519122
-0.00161348
0.00228049
0.000627009
-0.00112937
-0.00119771
-0.00073989
-0.000506771
-0.000253445
-0.000354376
0.00103154
-0.0152898
-0.0135041
0.00326446
0.000393777
-0.00234731
0.00751975
0.0136863
0.00665196
0.000917484
-0.00284077
-0.000617165
-0.00265081
-0.0182889
-0.00548253
0.00632988
-0.00351936
0.00110192
-0.000263618
-0.00102083
0.00409413
0.00420981
0.00383452
0.0192588
0.0200962
0.0178187
-0.00195804
-0.00245746
-0.00183758
-0.00196713
0.000917895
-0.0119321
0.00414633
0.0088644
-0.00367143
0.00392982
0.0040306
0.00267333
0.000836986
0.00392357
-0.00762537
-0.00778474
-0.00376333
-0.0098226
-0.00546014
-0.000449377
0.00414566
0.00456702
0.0118226
0.00655635
8.81511e-06
-0.00441587
0.00348484
0.00281506
-0.00184385
0.00316457
0.0139931
0.0313522
0.0366772
-0.00301481
-0.00266971
-0.00434847
-0.0185616
-0.0094893
-0.0178993
0.000135943
0.000995121
-7.99224e-05
0.0200462
0.0157816
0.0139078
-0.000797457
-0.000438096
-0.000625766
0.00447455
0.00384633
-0.000543256
-0.00071267
-0.00112396
-0.000361821
-0.00111556
-0.00128505
-0.00122496
-0.00810291
-0.00408026
-0.00592128
-0.00554286
-0.00251994
-0.00104726
-0.00294084
8.1209e-05
0.0026073
0.00174765
-0.00395033
-0.000899531
-3.94315e-10
-0.000113881
-0.00013443
-0.00128949
-0.0024525
-0.000378771
0.0083434
0.00929749
0.0227163
0.00453942
0.00572409
0.00138224
-0.0164547
-0.0132528
-4.64551e-10
-0.00173154
-0.00206926
1.91031e-05
0.000534401
-0.00157569
0.000628986
-0.00643734
0.00385499
-0.00534823
-0.0117388
-0.00571742
-0.0060669
-0.000660672
-0.00169
0.000140489
-0.00623695
0.00211286
-0.00451296
-0.00368478
0.000222551
-2.34301e-10
-0.000615074
-0.000155747
0.0133106
0.00752452
0.0111773
2.8746e-10
0.000207212
3.1722e-05
-0.0143542
-0.00600539
0.0243281
3.99812e-10
0.00137547
-0.0011449
-0.0183189
-0.018952
-0.0187464
-0.0156016
-0.0167088
0.00361074
0.00191886
0.00598184
0.000740267
0.000122179
-0.00637408
-0.00347142
-0.0115839
-0.0311387
-0.030968
-0.0145932
-0.0300109
-0.0191375
-0.0178479
-0.0122352
-0.0145854
-0.0110055
0.00893831
0.00411466
-0.0038511
0.0112068
0.0241482
0.00897538
0.000788863
0.00172261
0.020876
0.0153934
0.0287391
0.00825702
-0.010856
-0.0359224
-0.0331808
0.000221997
5.24708e-05
0.0129905
0.0119908
-0.000613323
-0.0171765
-0.0125642
-0.013386
0.000443683
0.0341896
0.0104356
-0.000506054
0.00161371
-8.4803e-05
0.00167545
-0.00182625
-0.0378343
-0.030764
-0.00877248
0.00653957
-0.00415609
0.0246933
0.0103543
-0.000135869
-0.00267878
-0.00218296
-0.000947477
-0.0211274
-0.00819989
-0.023491
0.00436639
0.00241724
0.00154063
0.00821507
0.00863419
-0.00105364
-0.00115616
-0.00291027
-0.00164525
-0.000694368
-0.0127897
-0.0114475
-0.0140464
-0.0107284
-0.0134098
-0.00817339
-0.00169644
-0.000753414
-0.000640691
-0.00493304
-0.0031678
0.0036822
0.00901624
0.00531436
0.00237887
0.00427988
0.00262484
-0.00160978
-0.00254008
-0.00158813
-0.00173268
-0.000574025
-0.0067615
-0.00498794
-0.00313115
-0.00482158
-0.00299087
-0.026555
-0.0122202
0.011803
-0.0067487
0.013529
0.00852607
0.00758193
0.0296361
0.0299173
0.0123586
-0.00591871
-0.00589909
-0.00286316
-0.0097833
-0.0185393
0.00425475
0.00631666
0.00493773
0.00362068
0.00290051
-0.000278798
-0.00376769
-0.00385376
-0.00230654
-0.0024707
-0.00150362
-0.00372937
-0.00397335
-0.0161462
0.00107918
-0.0113223
-0.0064109
-0.0149337
-0.015589
4.13116e-05
0.00145814
-0.0025461
-0.00284901
-0.00221177
-0.0153892
-0.0175527
-0.00647024
-0.00690912
-0.00249518
0.0040886
-0.000377223
0.000260709
0.0325017
0.0342224
0.017736
-0.00132771
-0.00153804
-0.00392483
-0.0022745
-0.0158513
-0.0157361
-0.00789509
0.00573543
0.000955889
0.0156071
0.01895
0.00884803
-0.0168512
-0.00133372
-0.0126427
0.0257569
0.025053
0.00890994
-0.00144972
0.0076636
0.00873834
0.00517835
0.00273301
-0.0191099
0.00395284
-0.00842008
-0.00273665
0.00387945
-0.000586247
0.0221596
0.00403247
0.017195
0.0127382
-0.00499469
0.00281804
0.0083507
0.00508997
0.00675537
-0.00966944
-0.00366584
-0.00764043
-0.00352859
-0.000658258
-0.00180095
-0.00305673
-0.00487378
-0.00310804
-0.00385156
-0.00209914
0.00242795
0.00161892
0.0024651
0.0162513
0.00919619
0.0111722
0.00753739
0.00182659
0.000521195
0.0201756
0.0188244
0.00704172
0.0259484
0.0215444
0.0160164
-0.00123145
0.00368581
0.00177256
0.00336455
0.00700786
0.00429718
0.00223915
0.0124364
0.0139418
0.00234781
0.00737311
0.0040086
-0.000363025
0.00372141
0.0033936
0.00241853
0.00188872
-0.007618
-0.0065958
-0.00433024
-0.00912073
-0.0104503
-0.0107547
-0.00234858
-0.0111083
2.88089e-10
-0.000117071
0.0164532
0.0202035
0.0132476
1.59059e-10
-0.000812668
0.00549422
0.00132805
-0.00400481
-3.08609e-10
0.00122348
-0.00439955
-0.00456211
0.00160381
0.00326687
0.0026888
0.00107537
0.00228021
-0.00182436
-0.00400133
0.00190866
-0.00341288
-0.00196374
-0.00383399
0.00848695
0.00159856
0.00370762
6.44365e-05
0.00510228
-0.00274209
-0.00453343
-0.00248713
-0.0143367
-0.015955
-0.00450246
-0.00348771