# vtk DataFile Version 2.0
HEAT EQUATION
ASCII
DATASET UNSTRUCTURED_GRID
POINTS 2765 float
0 0 0 
1 0 0 
1 1 0 
0 1 0 
0.05 0 0 
0.1 0 0 
0.15 0 0 
0.2 0 0 
0.25 0 0 
0.3 0 0 
0.35 0 0 
0.4 0 0 
0.45 0 0 
0.5 0 0 
0.55 0 0 
0.6 0 0 
0.65 0 0 
0.7 0 0 
0.75 0 0 
0.8 0 0 
0.85 0 0 
0.9 0 0 
0.95 0 0 
1 0.05 0 
1 0.1 0 
1 0.15 0 
1 0.2 0 
1 0.25 0 
1 0.3 0 
1 0.35 0 
1 0.4 0 
1 0.45 0 
1 0.5 0 
1 0.55 0 
1 0.6 0 
1 0.65 0 
1 0.7 0 
1 0.75 0 
1 0.8 0 
1 0.85 0 
1 0.9 0 
1 0.95 0 
0.95 1 0 
0.9 1 0 
0.85 1 0 
0.8 1 0 
0.75 1 0 
0.7 1 0 
0.65 1 0 
0.6 1 0 
0.55 1 0 
0.5 1 0 
0.45 1 0 
0.4 1 0 
0.35 1 0 
0.3 1 0 
0.25 1 0 
0.2 1 0 
0.15 1 0 
0.1 1 0 
0.05 1 0 
0 0.95 0 
0 0.9 0 
0 0.85 0 
0 0.8 0 
0 0.75 0 
0 0.7 0 
0 0.65 0 
0 0.6 0 
0 0.55 0 
0 0.5 0 
0 0.45 0 
0 0.4 0 
0 0.35 0 
0 0.3 0 
0 0.25 0 
0 0.2 0 
0 0.15 0 
0 0.1 0 
0 0.05 0 
0.506999 0.498671 0 
0.128644 0.130167 0 
0.13034 0.874513 0 
0.873757 0.869449 0 
0.870372 0.125743 0 
0.032095 0.966901 0 
0.966857 0.967912 0 
0.0327483 0.0328187 0 
0.967926 0.0331516 0 
0.725637 0.350394 0 
0.656395 0.736916 0 
0.274174 0.638193 0 
0.346762 0.266219 0 
0.0759287 0.173872 0 
0.188041 0.931161 0 
0.93095 0.812104 0 
0.813483 0.0694889 0 
0.0857834 0.0734093 0 
0.91282 0.929293 0 
0.929517 0.0871615 0 
0.0706969 0.913161 0 
0.204039 0.431694 0 
0.781392 0.576096 0 
0.421199 0.786459 0 
0.55839 0.217333 0 
0.855241 0.279012 0 
0.146352 0.723557 0 
0.725185 0.862147 0 
0.276125 0.140636 0 
0.151414 0.0622321 0 
0.933155 0.155294 0 
0.844355 0.93193 0 
0.068006 0.845481 0 
0.112606 0.920747 0 
0.92039 0.887368 0 
0.887746 0.0795476 0 
0.0783402 0.122703 0 
0.0414739 0.231377 0 
0.777029 0.0437402 0 
0.957621 0.775938 0 
0.224181 0.957763 0 
0.0741178 0.956371 0 
0.956245 0.925887 0 
0.0427131 0.0768263 0 
0.925957 0.0437685 0 
0.0365251 0.927846 0 
0.0713895 0.0374717 0 
0.927706 0.963483 0 
0.963563 0.0722939 0 
0.501598 0.659309 0 
0.340306 0.500489 0 
0.660732 0.494392 0 
0.722858 0.193723 0 
0.485542 0.343198 0 
0.858407 0.42472 0 
0.144835 0.572974 0 
0.575818 0.859192 0 
0.423866 0.140276 0 
0.815636 0.72665 0 
0.192161 0.278338 0 
0.278522 0.817149 0 
0.570652 0.113316 0 
0.907358 0.563105 0 
0.436717 0.904931 0 
0.927928 0.225027 0 
0.230642 0.0887988 0 
0.770169 0.921379 0 
0.080921 0.771308 0 
0.0426327 0.879993 0 
0.879576 0.957367 0 
0.957735 0.120332 0 
0.117947 0.0422312 0 
0.965092 0.882534 0 
0.0318012 0.121958 0 
0.117472 0.965204 0 
0.882645 0.034948 0 
0.817987 0.033045 0 
0.182518 0.967456 0 
0.967375 0.817536 0 
0.157383 0.906506 0 
0.906138 0.842662 0 
0.843833 0.0934807 0 
0.0464154 0.195584 0 
0.105575 0.157303 0 
0.11989 0.0885007 0 
0.912258 0.120738 0 
0.879121 0.911635 0 
0.0882494 0.879884 0 
0.603772 0.383883 0 
0.617213 0.618762 0 
0.382495 0.392558 0 
0.396254 0.681115 0 
0.114793 0.374045 0 
0.458219 0.242908 0 
0.532799 0.756595 0 
0.761832 0.477358 0 
0.251588 0.518473 0 
0.682562 0.0994648 0 
0.887402 0.674245 0 
0.323889 0.888927 0 
0.0912322 0.632438 0 
0.81094 0.160088 0 
0.316964 0.0876644 0 
0.685043 0.917441 0 
0.915042 0.312585 0 
0.170105 0.64749 0 
0.834809 0.809985 0 
0.156149 0.195547 0 
0.190687 0.835108 0 
0.522693 0.924777 0 
0.924855 0.477453 0 
0.476278 0.07653 0 
0.239387 0.73292 0 
0.730435 0.766275 0 
0.271172 0.229048 0 
0.0833541 0.525936 0 
0.767012 0.270627 0 
0.814221 0.352714 0 
0.351026 0.184564 0 
0.648382 0.816385 0 
0.114925 0.820807 0 
0.886045 0.182416 0 
0.817936 0.883986 0 
0.193993 0.107433 0 
0.572398 0.0525448 0 
0.0503675 0.719982 0 
0.952081 0.5692 0 
0.430573 0.951063 0 
0.0417941 0.277525 0 
0.176193 0.0350286 0 
0.955319 0.189444 0 
0.809433 0.953379 0 
0.0470473 0.810203 0 
0.219791 0.0411839 0 
0.0386156 0.160616 0 
0.948378 0.84888 0 
0.849317 0.0517469 0 
0.151154 0.948541 0 
0.646023 0.275392 0 
0.270921 0.34684 0 
0.723239 0.658609 0 
0.441413 0.578858 0 
0.336754 0.762684 0 
0.409515 0.46628 0 
0.144227 0.494606 0 
0.836402 0.505736 0 
0.495133 0.837189 0 
0.633749 0.164258 0 
0.496452 0.155631 0 
0.58162 0.539345 0 
0.523121 0.418503 0 
0.580803 0.684207 0 
0.462306 0.717757 0 
0.299142 0.574856 0 
0.283216 0.454125 0 
0.716267 0.536385 0 
0.672762 0.417118 0 
0.41645 0.325154 0 
0.525893 0.28756 0 
0.846471 0.621047 0 
0.362339 0.845817 0 
0.118722 0.283551 0 
0.93371 0.398756 0 
0.601065 0.934078 0 
0.396982 0.0701359 0 
0.885056 0.741992 0 
0.258819 0.88619 0 
0.748811 0.123457 0 
0.219102 0.589418 0 
0.59563 0.782801 0 
0.782579 0.405977 0 
0.0612721 0.418908 0 
0.152389 0.781193 0 
0.216281 0.158506 0 
0.786231 0.844554 0 
0.411513 0.209721 0 
0.844398 0.214616 0 
0.127027 0.656888 0 
0.363377 0.937161 0 
0.937985 0.635409 0 
0.6386 0.0586252 0 
0.769861 0.219614 0 
0.700946 0.0596276 0 
0.947348 0.702428 0 
0.297381 0.947551 0 
0.674846 0.865777 0 
0.862934 0.325463 0 
0.325715 0.13652 0 
0.27426 0.0511699 0 
0.726352 0.953014 0 
0.95275 0.270806 0 
0.0474067 0.574302 0 
0.066909 0.670258 0 
0.480562 0.952166 0 
0.952561 0.519494 0 
0.519737 0.0500691 0 
0.192292 0.695607 0 
0.10126 0.727302 0 
0.111267 0.195232 0 
0.771009 0.323059 0 
0.67769 0.775825 0 
0.321472 0.223868 0 
0.0438374 0.329004 0 
0.830263 0.130957 0 
0.0356093 0.770391 0 
0.867071 0.827975 0 
0.172142 0.867598 0 
0.188301 0.0725254 0 
0.894762 0.157248 0 
0.106093 0.844062 0 
0.159303 0.101178 0 
0.842513 0.893466 0 
0.0355741 0.842438 0 
0.841879 0.964518 0 
0.96532 0.15777 0 
0.0891245 0.81488 0 
0.913317 0.186997 0 
0.812483 0.910569 0 
0.148687 0.0347709 0 
0.506585 0.576926 0 
0.199047 0.350284 0 
0.589938 0.454335 0 
0.358611 0.617837 0 
0.444519 0.395628 0 
0.322315 0.685778 0 
0.598532 0.309237 0 
0.663076 0.343368 0 
0.691473 0.605229 0 
0.649036 0.674711 0 
0.646779 0.553227 0 
0.788731 0.66756 0 
0.353791 0.44749 0 
0.339346 0.341672 0 
0.445805 0.639297 0 
0.404371 0.725961 0 
0.436264 0.51924 0 
0.22018 0.775674 0 
0.226602 0.220339 0 
0.775582 0.78334 0 
0.700284 0.261661 0 
0.744511 0.423365 0 
0.289441 0.747799 0 
0.623266 0.230796 0 
0.263459 0.38337 0 
0.152309 0.417262 0 
0.572211 0.736008 0 
0.811189 0.468252 0 
0.533615 0.813084 0 
0.565983 0.1677 0 
0.39845 0.277641 0 
0.130335 0.238007 0 
0.469035 0.186069 0 
0.487834 0.3034 0 
0.514973 0.219717 0 
0.688537 0.712324 0 
0.245439 0.296385 0 
0.506092 0.698813 0 
0.469897 0.789941 0 
0.788487 0.529392 0 
0.703769 0.497816 0 
0.846659 0.583106 0 
0.425832 0.847618 0 
0.206393 0.475952 0 
0.32584 0.816175 0 
0.780869 0.0911165 0 
0.51616 0.105926 0 
0.855283 0.700561 0 
0.705772 0.140407 0 
0.619986 0.122859 0 
0.481471 0.898094 0 
0.898668 0.518918 0 
0.0650904 0.372645 0 
0.29517 0.500116 0 
0.0814882 0.468239 0 
0.0989136 0.581535 0 
0.22316 0.910833 0 
0.910436 0.777242 0 
0.13455 0.615447 0 
0.893812 0.636296 0 
0.359578 0.892819 0 
0.701656 0.817486 0 
0.298852 0.182672 0 
0.814512 0.299692 0 
0.858239 0.376659 0 
0.376346 0.141702 0 
0.623706 0.859489 0 
0.896355 0.262822 0 
0.727248 0.90403 0 
0.274006 0.100872 0 
0.246064 0.675258 0 
0.817026 0.246451 0 
0.175712 0.146989 0 
0.557576 0.950053 0 
0.441334 0.0513897 0 
0.949986 0.442424 0 
0.0439104 0.629286 0 
0.970244 0.383555 0 
0.373985 0.0346991 0 
0.616264 0.97043 0 
0.235432 0.630543 0 
0.255887 0.561188 0 
0.963127 0.665048 0 
0.334516 0.962954 0 
0.66485 0.0359455 0 
0.769829 0.168855 0 
0.77341 0.366994 0 
0.635814 0.776222 0 
0.125245 0.759091 0 
0.529968 0.87762 0 
0.877285 0.470457 0 
0.217367 0.128065 0 
0.789966 0.879248 0 
0.882829 0.212658 0 
0.962947 0.317552 0 
0.328516 0.0400351 0 
0.681281 0.963538 0 
0.12315 0.5183 0 
0.771184 0.965519 0 
0.967198 0.227082 0 
0.467759 0.121585 0 
0.0356176 0.529369 0 
0.0813106 0.301534 0 
0.146492 0.827307 0 
0.826435 0.852739 0 
0.853602 0.172708 0 
0.716003 0.0999211 0 
0.0867922 0.696112 0 
0.294899 0.905254 0 
0.904179 0.705012 0 
0.0765465 0.212247 0 
0.15076 0.683338 0 
0.367918 0.97111 0 
0.971487 0.631701 0 
0.118253 0.692903 0 
0.632881 0.0276813 0 
0.0256604 0.423292 0 
0.810632 0.197215 0 
0.266282 0.966738 0 
0.966613 0.733759 0 
0.734143 0.0359332 0 
0.0206027 0.825753 0 
0.825397 0.979517 0 
0.980184 0.174254 0 
0.032149 0.673912 0 
0.542186 0.35503 0 
0.556084 0.623099 0 
0.386501 0.553421 0 
0.468755 0.441779 0 
0.323526 0.401444 0 
0.758687 0.608601 0 
0.305309 0.290708 0 
0.746627 0.719794 0 
0.68464 0.218975 0 
0.317416 0.641322 0 
0.190048 0.529875 0 
0.688891 0.311855 0 
0.569146 0.269298 0 
0.54012 0.459091 0 
0.300716 0.859134 0 
0.623703 0.418407 0 
0.373057 0.799317 0 
0.470579 0.605275 0 
0.15157 0.340379 0 
0.0359523 0.459588 0 
0.284092 0.70561 0 
0.184391 0.751657 0 
0.247237 0.181133 0 
0.754184 0.820437 0 
0.0843209 0.252796 0 
0.49083 0.541648 0 
0.797061 0.623967 0 
0.365288 0.71285 0 
0.564591 0.906142 0 
0.905856 0.435531 0 
0.380744 0.49357 0 
0.389493 0.431821 0 
0.38657 0.23781 0 
0.103753 0.42276 0 
0.402396 0.638196 0 
0.434275 0.0949259 0 
0.239628 0.459737 0 
0.607709 0.575803 0 
0.613705 0.500729 0 
0.533778 0.539862 0 
0.187854 0.393033 0 
0.426166 0.700352 0 
0.901339 0.361246 0 
0.63832 0.902537 0 
0.361829 0.102095 0 
0.685207 0.673389 0 
0.175642 0.601889 0 
0.685246 0.565234 0 
0.263035 0.601002 0 
0.52846 0.182784 0 
0.522153 0.965318 0 
0.477543 0.0355755 0 
0.965401 0.477882 0 
0.816481 0.772356 0 
0.184616 0.237515 0 
0.230105 0.816936 0 
0.414288 0.371638 0 
0.168807 0.463415 0 
0.0840263 0.340593 0 
0.622715 0.345563 0 
0.687132 0.460492 0 
0.68562 0.37232 0 
0.239358 0.359898 0 
0.324891 0.468355 0 
0.622037 0.705291 0 
0.535787 0.144895 0 
0.213628 0.30451 0 
0.602897 0.196235 0 
0.658573 0.637039 0 
0.464073 0.674754 0 
0.449973 0.753894 0 
0.495088 0.747772 0 
0.749272 0.505315 0 
0.753191 0.544951 0 
0.32203 0.535996 0 
0.157531 0.275905 0 
0.457637 0.322253 0 
0.368592 0.311901 0 
0.733617 0.24027 0 
0.609877 0.0807815 0 
0.444337 0.825742 0 
0.822853 0.556446 0 
0.546428 0.701714 0 
0.229248 0.263119 0 
0.927552 0.542753 0 
0.45728 0.926468 0 
0.448141 0.864132 0 
0.865278 0.553359 0 
0.861966 0.658603 0 
0.742855 0.0758179 0 
0.928428 0.739635 0 
0.260572 0.928864 0 
[...]
CELL_DATA 1342
POINT_DATA 2765
SCALARS temp float
LOOKUP_TABLE default
-9.06021e-34
5.75402e-32
-1.09788e-32
-2.15338e-33
8.05745e-32
-1.07999e-30
2.41885e-30
-6.15989e-29
-5.18933e-28
-5.18944e-27
1.23852e-26
3.4083e-27
5.70933e-25
1.0024e-25
-2.055e-25
4.35025e-25
-6.67107e-26
-1.97902e-26
6.70021e-27
8.38128e-28
-4.46727e-29
-3.82371e-32
2.32301e-31
-1.06826e-30
1.54908e-29
7.05227e-29
-2.87717e-27
8.6576e-29
-3.3352e-27
-7.06506e-26
7.69509e-25
-7.77338e-24
-2.591e-24
6.00634e-24
-3.97076e-25
-1.25385e-25
-4.16225e-26
1.49001e-27
-5.36694e-28
4.38306e-29
3.68609e-31
1.27903e-31
-9.42296e-33
2.66952e-31
4.03086e-31
9.86917e-28
3.09654e-27
-9.74756e-26
4.92224e-25
1.41129e-24
-8.97987e-24
-2.22622e-24
7.24334e-24
-1.38597e-24
-1.16071e-25
-4.45492e-26
8.42149e-28
8.70556e-29
3.27116e-29
-5.30659e-30
-3.28681e-31
4.60573e-31
-6.25825e-30
-2.16782e-30
1.08785e-27
-5.23456e-27
-6.53997e-26
8.11693e-26
2.63541e-25
8.18049e-25
9.18136e-25
-2.24942e-25
-2.02351e-26
1.68825e-27
2.21738e-27
-9.8533e-28
1.0981e-28
1.42851e-30
-8.21784e-31
-5.19393e-32
1.21232
2.72542e-18
3.56887e-17
-2.59604e-19
-6.66889e-17
3.72294e-23
9.63972e-23
8.56243e-24
-4.3261e-22
-7.46259e-08
-4.48906e-09
1.16487e-08
-1.35824e-08
5.27641e-19
7.13178e-18
3.332e-18
-1.37433e-18
1.59158e-20
1.53028e-20
-2.53805e-19
1.40397e-19
8.08504e-10
1.35758e-08
-3.36691e-09
6.53906e-09
3.48508e-14
6.89478e-15
1.44362e-13
-4.32317e-16
-1.6963e-19
1.85e-18
9.91086e-19
-3.01552e-19
-3.80059e-19
7.18736e-20
3.66505e-19
-8.32329e-20
-1.02991e-18
-9.90835e-18
5.87908e-18
-8.36206e-19
5.48951e-21
-1.67112e-21
7.22048e-22
-1.79976e-21
-3.5042e-21
-5.75294e-22
-9.51725e-23
7.84881e-21
-0.00104198
-5.35204e-05
-0.000125152
-5.60546e-13
0.000173508
2.34821e-11
7.39006e-11
5.64195e-11
1.46456e-12
5.37877e-13
-3.85826e-13
3.31657e-13
-1.1768e-12
-2.59941e-12
-2.28566e-12
-3.32901e-16
-2.98089e-17
1.97382e-16
3.9624e-17
6.35898e-20
-8.46152e-22
-1.50041e-19
9.60422e-21
-2.34609e-21
4.61854e-21
3.24997e-20
3.88774e-21
3.21322e-19
-1.27239e-19
-2.94218e-19
1.45595e-18
-7.55615e-19
6.68839e-18
-5.29465e-20
1.36274e-18
-2.64399e-19
4.63126e-18
-3.17935e-19
-1.88892e-18
-0.000378247
0.000383267
0.000256868
9.04802e-07
-7.26505e-14
2.28922e-08
3.49039e-07
7.54996e-08
-3.69272e-07
-1.82488e-14
2.38364e-13
-4.45661e-15
1.57384e-13
8.10939e-15
-1.68953e-15
-1.16499e-15
-1.00635e-14
2.9145e-11
-2.39956e-15
6.02717e-16
-1.611e-15
-1.3108e-12
-1.15604e-12
7.32209e-14
1.38188e-11
1.52531e-11
-2.64906e-12
2.55987e-13
-5.81628e-11
-8.0778e-11
-1.77846e-11
3.37402e-11
1.09685e-16
-3.35423e-16
1.80819e-17
-1.48134e-17
-2.17242e-15
1.66859e-16
1.56452e-14
2.3299e-14
1.20367e-17
-7.51706e-20
8.81645e-18
-1.50206e-18
1.08043e-19
9.2461e-19
-1.81203e-20
-4.28306e-20
-2.21198e-19
-2.95145e-19
2.00024e-08
-2.98824e-09
-1.59692e-09
0.336727
4.21703e-10
0.481421
-4.51451e-12
-8.87924e-10
-9.58759e-10
4.81811e-12
4.46743e-11
0.610215
0.725977
8.8058e-06
-2.57539e-06
7.59408e-06
7.71939e-07
4.85769e-06
-7.27177e-05
-9.28872e-06
3.48457e-06
2.84577e-11
-4.71033e-12
8.3517e-16
4.4623e-14
1.12794e-13
3.21376e-15
3.4889e-15
-7.02573e-16
-1.51389e-15
1.37338e-08
1.22492e-08
8.83126e-09
-5.60818e-15
1.8645e-16
-3.92793e-15
-6.16379e-16
1.12287e-09
-2.67809e-14
-2.57379e-13
-6.55596e-15
-2.16774e-15
-4.31992e-15
9.6071e-13
5.02139e-16
5.33225e-16
1.48806e-16
-2.09534e-13
2.19541e-12
3.34197e-13
2.62641e-18
-4.87429e-18
-6.64867e-17
-1.15601e-15
-1.85662e-15
-1.20498e-13
-9.24831e-14
7.40529e-15
7.83945e-12
-2.54869e-15
-4.94648e-17
9.42591e-10
1.46153e-10
8.72558e-11
-4.59339e-17
-2.46679e-16
-9.39625e-18
6.36524e-17
4.9582e-18
1.38745e-18
-5.73246e-17
2.11556e-17
4.71376e-18
3.86178e-18
-8.77486e-22
-5.86829e-20
-1.77599e-19
-7.81141e-18
-3.07229e-17
-2.69588e-17
1.09876e-20
0.929022
-1.49175e-11
0.122401
5.90365e-06
0.00333923
-1.92244e-08
-1.42888e-06
1.63084e-06
1.60136e-06
3.12974e-06
-0.000458578
1.37291e-10
0.000238572
8.86625e-07
0.000388465
6.10067e-09
0.751706
-6.78749e-13
-4.23505e-13
-2.19283e-13
-6.95647e-10
-3.20093e-07
-1.76618e-10
-2.51089e-09
-3.49194e-09
-5.47376e-12
-1.02952e-06
-5.04357e-10
-1.2634e-10
-2.76753e-11
1.11651e-07
-2.19206e-16
-1.08602e-10
1.16112e-05
9.38852e-09
1.55128e-08
-6.88649e-11
5.80381e-05
5.42134e-09
1.13013e-08
1.93079e-05
3.65934e-11
-1.79897e-11
-1.15034e-09
-2.9148e-12
1.66508e-17
-1.23555e-12
-2.11564e-13
2.94708e-13
-1.62429e-12
1.21211e-11
1.05048e-11
4.45069e-16
8.82125e-06
-2.62781e-14
-6.1069e-13
-7.4104e-17
-8.48595e-17
-1.87302e-12
-1.55469e-13
2.45408e-13
-8.67464e-12
-1.88235e-12
-2.33056e-11
5.46946e-13
3.58924e-13
1.23532e-13
7.55948e-15
-6.92987e-16
7.60958e-16
-3.91486e-10
2.98515e-12
-1.78328e-16
9.41448e-14
-2.50556e-15
5.68061e-14
-1.66706e-15
-6.91131e-16
-1.04644e-16
-4.95297e-16
3.74695e-09
-4.10275e-07
6.47801e-17
3.77039e-16
3.84876e-17
2.21271e-16
1.45988e-09
-1.08602e-09
-1.972e-15
2.2264e-11
2.0033e-11
3.832e-16
4.51108e-16
3.58673e-15
5.11487e-18
-3.38185e-18
6.31643e-16
-2.9506e-12
-7.87768e-18
2.15945e-17
-1.49084e-12
-3.36397e-15
-2.77174e-16
-1.48144e-15
-2.04985e-16
3.75092e-15
-7.73694e-15
-2.96518e-15
-2.11417e-16
-7.65633e-15
1.54117e-19
-1.21056e-12
7.354e-16
8.92696e-16
7.88832e-14
3.93899e-16
-2.43774e-17
-1.5097e-13
-3.39691e-18
-1.03023e-17
-3.21072e-17
-2.94813e-20
4.98104e-20
-3.23334e-19
3.07666e-16
-0.000712322
0.00138451
0.00505399
0.712047
8.04485e-07
5.59914e-08
2.5242e-09
2.80712e-11
3.09703e-11
-7.79522e-08
-1.00707e-09
1.40329e-08
-6.30362e-07
0.914757
3.38584e-14
0.00286337
-9.46296e-11
0.110043
-3.00723e-14
1.54147e-15
-5.08364e-11
-8.63247e-13
2.11656e-13
3.93924e-14
9.66339e-18
1.05578
-1.38297e-09
-5.06407e-08
-2.01064e-12
-1.00112e-12
0.0125333
-0.00375557
1.19653e-09
2.35934e-13
-5.93936e-05
1.20027e-14
1.19392e-09
-0.000408427
0.0209183
0.970893
-6.56156e-11
9.84808e-07
-8.72656e-14
1.34427e-13
-2.288e-14
2.04025e-09
-8.93288e-11
2.87005e-05
-1.58812e-07
-5.29572e-10
5.78984e-14
-3.5848e-15
4.90262e-14
4.09145e-14
-3.94887e-14
-1.05025e-13
0.000224146
2.97496e-11
9.72911e-16
1.0506e-05
-0.00015023
6.89334e-06
2.7626e-10
-2.37525e-05
6.94526e-07
1.72151e-11
5.02637e-12
-8.87402e-10
-4.18673e-06
5.15073e-06
1.19511e-07
-1.0715e-06
-1.01172e-06
6.69928e-08
-0.000192205
2.38489e-14
-7.14711e-06
1.28664e-06
1.59704e-12
8.22029e-14
8.71715e-12
-5.00927e-10
2.32353e-05
5.4292e-12
-1.60436e-13
-3.17254e-13
3.11957e-11
4.86033e-11
-3.62352e-12
5.00225e-16
-5.95177e-17
5.70464e-17
1.25935e-13
2.30674e-13
9.06704e-14
6.02445e-12
-6.07672e-07
-8.94331e-11
-2.62243e-11
-4.16749e-12
-1.75815e-12
3.95165e-13
-6.05235e-16
4.83828e-07
5.87801e-06
-4.81931e-12
2.08006e-08
3.32004e-11
2.00997e-06
2.72963e-11
1.63594e-18
1.13832e-16
2.74068e-15
4.50092e-09
-1.23081e-14
-1.38175e-13
-1.81128e-14
-8.2707e-12
-5.66659e-15
2.98782e-17
-2.96595e-16
1.36655e-08
-8.79633e-17
2.02452e-18
1.46203e-08
4.06965e-09
1.22892e-15
3.33062e-15
-1.06482e-14
-1.07621e-14
5.29455e-17
-5.10063e-15
4.27775e-11
-7.8503e-10
9.33389e-17
1.78329e-08
1.69775e-08
-7.89101e-15
-5.175e-15
6.84882e-14
1.63738e-14
1.3562e-16
2.28457e-14
-8.6718e-14
-1.06784e-09
-5.82733e-16
-2.4746e-17
3.68979e-16
-4.33804e-15
2.18392e-14
-5.21918e-12
0.0346709
0.599176
0.000262098
1.84581e-05
1.0284
-9.39898e-05
2.46858e-05
-0.000674676
0.000269764
1.37085e-07
0.0332065
7.59381e-08
-3.00307e-05
-0.000252354
8.86865e-07
5.05825e-12
-4.2598e-14
-3.61049e-11
-1.09386e-09
0.00538912
0.899628
-2.26841e-12
-8.35629e-13
1.28001e-09
0.517075
-0.000330061
2.49669e-13
6.10104e-09
0.000491315
-7.44106e-14
3.44249e-09
-6.23375e-05
0.822142
-4.02676e-07
-1.13649e-06
-3.21864e-08
-2.28817e-14
-4.04502e-15
-1.88944e-05
-9.50129e-12
-1.85601e-07
1.1152e-10
0.114466
0.62597
-4.51211e-11
2.89069e-08
-2.47309e-07
-1.79759e-14
8.65876e-10
-1.28011e-09
3.63598e-11
3.56976e-09
-3.63238e-07
-2.17766e-12
2.47348e-10
-5.72356e-07
-9.96676e-10
-3.32462e-12
0.636334
2.11763e-09
-1.31301e-07
1.58743e-05
0.00393202
7.05297e-07
-0.00245696
8.92091e-07
-8.48645e-10
6.23818e-15
-3.07433e-08
-4.97024e-10
-9.23478e-15
4.2904e-14
-1.67335e-14
1.71044e-17
-1.54532e-10
0.712487
-4.57658e-10
-5.74408e-10
-1.88671e-08
-1.63655e-09
-6.07689e-06
-6.18891e-15
-4.17343e-06
-1.72834e-11
-8.71641e-10
-1.83618e-09
-3.11401e-14
0.012108
0.00758388
2.46403e-11
1.10298e-08
1.8944e-11
2.13414e-08
-5.24144e-10
-9.07844e-08
-1.08725e-14
-6.71447e-15
-3.55325e-15
0.000727245
-0.0101284
7.15166e-06
4.91335e-14
-0.0129734
9.1844e-08
-1.16525e-08
-0.000207635
-1.15265e-05
0.504582
0.00727972
-0.00261737
-1.76436e-06
2.52565e-10
-0.016614
-4.57639e-08
9.97028e-08
0.00572487
4.07188e-08
-4.48708e-05
-7.441e-10
0.486832
9.32537e-11
0.529622
-8.89879e-12
4.13003e-13
-1.67865e-09
-3.12342e-14
0.847985
0.535745
1.6551e-13
6.85e-13
5.5908e-10
1.03763e-10
1.2722e-10
-1.84731e-10
1.64643e-09
6.59675e-09
0.000573438
-5.1755e-32
-4.61223e-23
-1.19065e-22
-1.77594e-23
-8.03361e-23
-6.06595e-23
2.00476e-22
9.60995e-22
1.48931e-21
1.7095e-20
6.94835e-20
1.06651e-19
1.00286e-18
4.2421e-18
-3.80363e-17
-1.21563e-26
2.12279e-19
-1.49348e-17
-6.54448e-19
-1.74624e-19
-7.49161e-19
6.43454e-29
4.30164e-20
-1.56885e-31
1.36991e-22
-4.21126e-21
-5.60736e-32
2.02694e-22
1.11247e-21
1.05293e-21
-5.98846e-34
6.99162e-25
1.90333e-23
9.94413e-34
9.76469e-23
-6.10561e-22
-1.48003e-21
-6.41935e-28
-5.12421e-18
2.96643e-14
7.98519e-15
8.93716e-15
6.28196e-18
8.26535e-17
-3.34195e-16
-5.30454e-16
1.1693e-15
9.46795e-25
2.63373e-16
7.37467e-16
9.68594e-33
9.42853e-24
-2.2082e-23
1.5882e-32
2.18348e-24
1.62004e-22
1.3815e-18
2.89689e-18
-5.15561e-18
-1.13992e-17
1.08281e-17
-1.96127e-16
2.39799e-26
8.86476e-17
-8.53168e-26
-2.41407e-16
-6.0893e-18
1.80114e-13
5.31189e-14
6.35774e-14
4.41149e-19
1.01515e-19
2.67305e-19
-3.58059e-29
-4.04742e-20
-1.06048e-30
-2.88518e-22
-2.74664e-21
1.19791e-32
8.40183e-24
-6.85673e-24
-6.80086e-23
3.97501e-31
-3.11592e-21
-1.38418e-20
-2.32298e-20
-1.04287e-20
-3.30205e-20
2.3039e-20
-8.53286e-20
1.23816e-19
-9.21498e-16
6.3675e-16
6.25835e-15
8.13499e-15
-2.01822e-14
-1.03722e-23
-6.1665e-15
-1.02941e-14
2.14188e-24
6.01544e-16
-1.77612e-16
-3.50516e-32
-2.2117e-16
-3.44398e-16
-1.87784e-32
-3.37016e-23
-2.98129e-19
-9.58624e-19
3.75103e-18
2.05053e-17
9.31191e-17
3.60702e-17
-3.33539e-26
-2.17009e-16
-2.48107e-25
-3.30924e-16
-3.06284e-16
-1.93502e-14
1.93662e-15
7.62238e-14
-7.74472e-20
-3.15449e-20
-1.63682e-19
-2.44268e-29
-2.71236e-20
1.46897e-30
5.15429e-21
-5.49206e-21
-2.01291e-32
-1.38245e-22
-5.08802e-22
-3.16028e-22
-1.82589e-22
5.32359e-22
3.04155e-26
1.24687e-16
-1.32597e-16
1.41463e-21
-5.16296e-21
2.47627e-20
1.12036e-20
-4.76942e-20
-1.88971e-15
2.16652e-15
9.35745e-15
1.02405e-14
-2.39979e-14
-1.25159e-23
-8.21444e-15
-1.38231e-14
2.67882e-24
9.59042e-16
4.90249e-17
2.08898e-31
1.69875e-21
6.55927e-21
1.11611e-20
4.69717e-16
-2.46848e-15
2.2377e-21
1.30915e-21
-3.29745e-21
7.18625e-22
-5.27038e-21
-2.99748e-19
-1.04484e-18
-3.16853e-19
1.96446e-26
1.88751e-17
1.54164e-17
4.52083e-17
-2.35265e-17
6.4551e-23
3.27571e-22
-7.60179e-30
-9.09022e-21
-3.05295e-25
-2.22681e-16
-1.44613e-16
-1.88148e-16
-9.39711e-16
2.31593e-26
5.86073e-17
-4.56381e-17
2.85757e-26
-2.45558e-17
-1.20329e-25
1.94318e-18
-1.83471e-16
-7.19656e-16
3.79508e-15
-5.84352e-16
-7.94816e-16
4.43299e-15
1.13162e-25
1.71351e-16
-9.52333e-17
2.18486e-14
2.07396e-14
2.47251e-15
-8.5423e-20
-2.5206e-20
-1.80213e-19
1.44609e-28
3.00234e-19
9.07395e-27
-1.3664e-17
3.82462e-17
1.53087e-17
-1.70012e-16
1.68162
1.58765
1.26956
9.09118e-26
1.04887e-16
4.40106e-17
1.42152
1.24174
-0.000173689
0.00103278
-7.83984e-05
-8.41194e-09
-3.52636e-09
-1.35681e-09
7.88703e-22
4.11637e-21
-6.96394e-28
2.02111e-18
-1.25101e-22
6.60454e-22
-1.12887e-27
-1.31825e-18
-5.52422e-21
2.44042e-21
5.65079e-31
7.30844e-22
-4.77302e-23
-1.19044e-22
-5.61573e-21
2.79111e-27
1.12236e-18
-3.11393e-30
-1.15446e-21
1.35497e-21
-5.67693e-20
-1.72951e-20
8.03508e-20
-5.80236e-10
-8.3703e-10
-1.64823e-10
-2.8671e-20
1.73175e-19
-1.83633e-08
-2.78445e-08
-7.30062e-08
-6.80691e-18
-6.88634e-18
-3.46316e-19
-5.56456e-06
0.000165489
-3.11874e-05
3.32949e-19
-1.73334e-18
2.69257e-19
-5.30473e-19
3.46287e-19
-2.1013e-16
-1.09342e-16
4.06642e-18
-8.8039e-19
1.13348e-18
3.57192e-27
-1.39025e-18
2.6297e-20
1.86546e-18
-1.88193e-19
-8.47706e-27
-6.49327e-18
-9.54705e-10
-2.55127e-08
-2.31621e-08
8.52465e-32
4.49339e-23
9.18106e-23
-6.42646e-18
-1.10205e-18
-1.82108e-31
-1.10179e-22
-9.76752e-23
3.97006e-18
8.22351e-18
-3.18261e-31
-1.66571e-22
2.77881e-22
5.19891e-17
-3.24072e-17
5.99165e-31
3.43935e-22
9.79647e-22
-3.8284e-17
4.70667e-18
-1.26243e-09
-9.72885e-10
-2.38163e-10
-1.82581e-28
1.52557e-19
-3.37564e-14
-6.83861e-13
3.30073e-13
6.68725e-28
3.07652e-20
1.92224e-12
-2.5366e-11
-1.18988e-11
-9.49976e-29
-3.98834e-20
4.6306e-14
-3.79667e-15
-4.82626e-15
-1.20584e-27
-1.29617e-18
1.16487e-18
1.52832e-19
2.6438e-19
-3.30273e-09
1.21814e-07
-5.00885e-08
-2.21086e-18
-3.7004e-20
1.31318e-19
3.96913e-14
-7.3639e-15
-5.21229e-14
4.62866e-19
9.99146e-20
4.24277e-20
-5.46945e-09
-6.48608e-09
-3.73329e-08
9.51848e-20
1.35239e-20
1.32341e-20
-1.01037e-09
2.24731e-08
-2.79988e-08
-1.2299e-20
-3.62099e-20
3.43219e-20
-3.22936e-18
9.55821e-18
8.10376e-20
5.95216e-19
-1.078e-18
-5.79909e-19
8.37327e-19
1.39313e-17
5.57306e-21
-3.81774e-20
-1.65843e-20
-1.23925e-18
-6.02081e-18
-7.59263e-18
-1.5404e-20
-2.59985e-19
8.32853e-19
-1.38536e-18
-4.51998e-18
-8.15526e-18
1.21447e-18
3.41002e-18
1.22607e-17
-3.41712e-18
-1.21483e-17
1.13717e-17
8.93373e-18
3.96753e-17
7.82179e-17
-4.96552e-20
-1.24536e-18
2.86205e-20
-2.86452e-14
-2.64976e-15
4.5811e-14
7.71251e-11
1.21831e-11
2.33336e-11
-4.99155e-13
-3.12885e-14
2.23497e-13
6.93987e-10
5.5436e-10
3.30007e-11
-2.09139e-13
-1.12426e-14
-7.00322e-14
-1.6501e-08
-9.52802e-10
9.19342e-09
2.14036e-15
2.43367e-15
-3.16812e-16
7.64417e-09
1.77097e-09
-3.69543e-09
6.25827e-30
-1.87268e-22
1.50596e-20
3.37789e-31
8.89606e-22
3.3698e-21
1.11373e-30
-2.45126e-21
1.31313e-21
-1.86003e-29
7.5139e-21
-3.06226e-20
-4.4389e-20
6.15018e-19
-1.70418e-19
2.96115e-20
-2.41537e-20
1.12069e-19
-2.62395e-20
3.01562e-21
1.13209e-19
6.37393e-20
-1.47509e-22
3.02522e-21
2.91716e-19
-1.36109e-18
4.77995e-19
-5.17483e-20
-4.10153e-14
1.95576e-14
-5.0535e-14
5.52238e-15
-1.18764e-10
-1.00682e-09
1.95676e-10
0.00233539
0.00045876
0.00297556
-2.4737e-14
6.35448e-15
1.68205e-09
-2.5559e-08
-2.27559e-08
3.68727e-17
4.56872e-18
8.9784e-17
-2.74581e-13
-3.30486e-13
-9.76931e-13
0.000665345
0.000489253
-4.45577e-08
-3.90449e-09
-2.08609e-08
6.88463e-07
3.53984e-07
-1.19808e-06
-2.42535e-13
-2.48897e-13
-9.87549e-14
-1.58799e-11
1.01347e-10
-5.35929e-27
-2.81777e-18
-4.97648e-18
5.6316e-08
1.87654e-08
6.66618e-08
-2.28269e-13
-2.49233e-13
-1.12016e-13
4.44141e-08
3.86118e-09
1.54562e-08
-4.66123e-08
-1.06379e-08
-5.8974e-08
5.05494e-17
1.11308e-17
9.19493e-17
-9.55769e-09
-9.13523e-10
4.98921e-10
1.5717e-27
9.07387e-19
4.84772e-19
1.68839e-18
2.17128e-17
4.17133e-18
3.0106e-17
1.44879e-09
-2.33019e-10
7.33208e-10
-2.95666e-27
-5.6103e-18
6.20602e-14
2.66947e-14
-6.70873e-14
5.66319e-12
1.51151e-12
1.80696e-12
2.79727e-27
-1.81723e-18
7.47326e-12
2.72077e-12
2.74469e-12
1.26092e-27
-8.09655e-19
-2.78055e-11
-7.9256e-11
1.51956e-10
2.4357e-16
6.3095e-16
-9.80017e-13
-4.17356e-12
3.43653e-11
-2.94466e-15
9.82914e-16
-3.20983e-15
-5.59492e-11
-1.63042e-10
1.51726e-10
-1.0377e-17
-1.07614e-16
0.0067349
0.00254675
-1.01594e-16
-1.98258e-16
-1.36615e-19
-5.05826e-20
-1.39105e-20
-2.78297e-20
-3.26287e-19
5.33814e-20
-2.69691e-19
-3.84975e-21
-9.10339e-19
2.12103e-19
1.2198e-18
7.45775e-20
4.53473e-19
7.06741e-19
-3.98283e-21
-4.11753e-22
1.3661e-21
-5.68503e-21
-1.3792e-21
-2.05953e-20
-3.61172e-21
3.50782e-20
7.65811e-21
-3.56169e-19
1.63585e-19
-3.11802e-20
1.19875e-18
4.12736e-20
-4.68335e-20
6.15318e-19
-2.78972e-20
-2.87178e-21
4.04475e-11
-8.14943e-12
1.8315e-12
9.54542e-15
6.04124e-15
2.50485e-15
-3.69357e-15
4.91087e-14
-8.82985e-15
1.63494e-18
-8.40104e-18
-4.66437e-21
-8.23686e-19
-7.87614e-16
8.52962e-18
7.85728e-17
4.76993e-19
-1.00454e-17
-1.1571e-19
4.74946e-18
0.00469291
-0.000522368
0.0286466
-1.13934e-05
0.000161887
-3.004e-05
0.000621435
0.026147
1.57769
1.49608
1.27127
2.45589e-05
8.29067e-05
1.84326e-06
0.00681896
0.00021003
0.0279604
4.94752e-05
2.43471e-05
3.07779e-06
1.92384e-13
4.6129e-14
1.16276e-14
-2.26773e-09
1.52601e-08
1.47191e-19
0.000553481
4.67658e-05
-1.51796e-10
5.04988e-09
-1.99085e-09
2.94417e-09
-1.01805e-08
-5.78287e-13
-5.42806e-12
0.00113117
0.000420605
3.85086e-13
-2.58646e-12
-1.07156e-05
5.2884e-06
2.53388e-06
-1.6886e-12
-4.87667e-11
-3.51808e-12
-5.76614e-18
-3.70988e-18
-6.90766e-18
8.48433e-14
5.91422e-15
9.53302e-14
-6.27511e-19
-3.0537e-18
-1.97411e-18
1.3947e-14
5.05147e-14
1.06725e-14
1.75666e-18
-3.88559e-19
2.72973e-18
2.00865e-14
-1.62462e-15
-7.39255e-14
1.40883e-07
-1.16616e-09
-4.07528e-08
5.02803e-15
7.18411e-15
4.23651e-18
-3.04764e-18
1.67729e-15
6.51579e-16
1.84591e-16
1.1988e-15
-1.4562e-15
2.29529e-28
-3.05558e-15
-6.39904e-16
-3.32437e-18
-1.8001e-16
6.68053e-17
4.18158e-13
5.93333e-14
2.29277e-13
1.10863e-16
7.15212e-16
3.3691e-16
8.50615e-12
1.91303e-12
-2.02445e-25
-1.93294e-16
-1.71669e-16
-2.0919e-18
5.82561e-18
-1.09296e-12
3.29279e-12
4.89498e-18
3.05164e-17
5.22695e-17
9.69006e-13
7.76225e-13
-2.27236e-12
-1.2768e-17
4.65315e-17
1.87235e-13
-8.19793e-13
9.40876e-12
-1.94998e-13
2.4515e-13
-2.26632e-13
4.64922e-26
4.19422e-17
6.43752e-17
-1.5761e-13
2.61724e-13
-1.28575e-13
1.7548e-26
3.53336e-17
2.89629e-17
-6.98989e-14
-1.43429e-13
-1.07505e-16
1.03961e-26
2.35685e-17
7.03452e-18
8.78203e-13
1.2983e-12
-6.99311e-12
5.42396e-13
1.1129e-12
1.11162e-09
-3.39688e-11
1.99818e-12
3.33533e-13
-2.53287e-13
-6.43562e-16
-2.81644e-15
-2.95735e-15
2.06362e-12
-1.50985e-13
-2.62056e-13
1.19667e-13
7.08845e-15
-1.29214e-14
-9.38429e-14
-3.79477e-13
6.25001e-13
8.4261e-15
-3.09792e-14
4.60701e-15
3.28333e-12
4.12931e-12
-2.45806e-12
1.44191e-16
1.81918e-16
9.04099e-11
1.9299e-11
5.29581e-11
3.14772e-16
-2.64963e-15
9.32476e-12
4.4042e-12
-6.16673e-16
-1.54138e-15
-1.6578e-11
1.09768e-11
3.99399e-18
1.61629e-12
-3.51408e-12
1.20487e-12
-1.14649e-17
-1.04329e-13
-4.5093e-15
4.97391e-19
2.06423e-12
-1.2875e-14
-3.79779e-14
-3.44708e-18
-6.94143e-13
-4.78383e-12
8.56021e-13
-5.95917e-13
2.62789e-12
-1.66681e-11
3.00462e-15
-1.97361e-15
-2.72011e-18
-4.80241e-17
2.71793e-17
-1.23798e-15
2.0387e-14
-8.29146e-14
5.91095e-12
8.57144e-13
2.51022e-12
-9.88518e-15
8.4559e-14
4.53945e-12
8.52544e-13
-5.44734e-13
-1.44329e-14
9.04656e-14
2.73539e-17
-1.05781e-15
5.21384e-17
-8.83718e-15
-2.93763e-14
-2.88525e-15
1.58071e-20
-2.17584e-20
-9.12575e-21
-4.6998e-18
-1.17748e-18
-4.78208e-19
1.26862e-16
-2.74762e-17
-4.08753e-18
-3.27543e-17
-1.84566e-17
2.74143e-19
1.58704e-17
2.31239e-18
1.85491e-17
2.4306e-18
-5.1086e-17
5.59451e-18
1.22522e-17
3.38009e-18
3.33184e-19
-1.46752e-16
-2.3429e-17
2.05866e-17
-1.55229e-18
-0.00035532
2.20203e-05
0.000136044
4.98045e-12
4.1784e-11
-1.73548e-11
-0.00130531
-0.00129298
-0.00786843
-7.00983e-12
-2.31325e-11
-0.000967821
-0.00159058
-0.00745706
-2.40497e-10
-3.36336e-11
-1.05406e-10
0.868672
0.968549
0.971132
1.65753e-07
1.74443e-07
2.81966e-08
-3.49764e-10
-2.0078e-10
-7.17829e-11
-4.38391e-09
-1.01225e-09
-2.12244e-09
2.82581e-09
1.14956e-08
1.81683e-08
1.63672
1.60386
1.39114
5.94926e-07
8.84419e-07
-1.83939e-10
-4.25928e-11
-3.72823e-11
-2.61422e-08
-1.36744e-08
-1.15518e-08
-7.71473e-11
-3.17456e-11
-2.00918e-11
-8.83144e-08
-7.48915e-07
5.27342e-07
-8.66049e-11
-2.5351e-11
-2.20972e-11
-1.94074e-15
1.09558e-15
-6.40532e-16
-5.86847e-11
4.59366e-10
-1.74076e-10
-5.02839e-14
-9.59611e-13
4.44467e-12
1.55357e-12
9.64926e-13
-5.19611e-05
-1.2347e-05
-1.08841e-05
3.21799e-06
-5.72778e-06
-1.62894e-05
-2.47424e-07
-2.02939e-06
-8.99709e-07
2.18731e-06
7.85391e-07
-2.07377e-05
0.727102
1.06133
0.878047
-1.81375e-11
-8.88548e-11
-3.09052e-10
-0.000466081
-1.68805e-05
8.46806e-06
-6.78269e-06
-1.36593e-06
-2.49203e-06
1.44813e-12
7.96798e-12
1.00111e-11
-1.32721e-07
-1.53544e-06
-2.60921e-06
-1.16166e-08
-2.26025e-09