# vtk DataFile Version 2.0
HEAT EQUATION
ASCII
DATASET UNSTRUCTURED_GRID
POINTS 2765 float
0 0 0 
1 0 0 
1 1 0 
0 1 0 
0.05 0 0 
0.1 0 0 
0.15 0 0 
0.2 0 0 
0.25 0 0 
0.3 0 0 
0.35 0 0 
0.4 0 0 
0.45 0 0 
0.5 0 0 
0.55 0 0 
0.6 0 0 
0.65 0 0 
0.7 0 0 
0.75 0 0 
0.8 0 0 
0.85 0 0 
0.9 0 0 
0.95 0 0 
1 0.05 0 
1 0.1 0 
1 0.15 0 
1 0.2 0 
1 0.25 0 
1 0.3 0 
1 0.35 0 
1 0.4 0 
1 0.45 0 
1 0.5 0 
1 0.55 0 
1 0.6 0 
1 0.65 0 
1 0.7 0 
1 0.75 0 
1 0.8 0 
1 0.85 0 
1 0.9 0 
1 0.95 0 
0.95 1 0 
0.9 1 0 
0.85 1 0 
0.8 1 0 
0.75 1 0 
0.7 1 0 
0.65 1 0 
0.6 1 0 
0.55 1 0 
0.5 1 0 
0.45 1 0 
0.4 1 0 
0.35 1 0 
0.3 1 0 
0.25 1 0 
0.2 1 0 
0.15 1 0 
0.1 1 0 
0.05 1 0 
0 0.95 0 
0 0.9 0 
0 0.85 0 
0 0.8 0 
0 0.75 0 
0 0.7 0 
0 0.65 0 
0 0.6 0 
0 0.55 0 
0 0.5 0 
0 0.45 0 
0 0.4 0 
0 0.35 0 
0 0.3 0 
0 0.25 0 
0 0.2 0 
0 0.15 0 
0 0.1 0 
0 0.05 0 
0.506999 0.498671 0 
0.128644 0.130167 0 
0.13034 0.874513 0 
0.873757 0.869449 0 
0.870372 0.125743 0 
0.032095 0.966901 0 
0.966857 0.967912 0 
0.0327483 0.0328187 0 
0.967926 0.0331516 0 
0.725637 0.350394 0 
0.656395 0.736916 0 
0.274174 0.638193 0 
0.346762 0.266219 0 
0.0759287 0.173872 0 
0.188041 0.931161 0 
0.93095 0.812104 0 
0.813483 0.0694889 0 
0.0857834 0.0734093 0 
0.91282 0.929293 0 
0.929517 0.0871615 0 
0.0706969 0.913161 0 
0.204039 0.431694 0 
0.781392 0.576096 0 
0.421199 0.786459 0 
0.55839 0.217333 0 
0.855241 0.279012 0 
0.146352 0.723557 0 
0.725185 0.862147 0 
0.276125 0.140636 0 
0.151414 0.0622321 0 
0.933155 0.155294 0 
0.844355 0.93193 0 
0.068006 0.845481 0 
0.112606 0.920747 0 
0.92039 0.887368 0 
0.887746 0.0795476 0 
0.0783402 0.122703 0 
0.0414739 0.231377 0 
0.777029 0.0437402 0 
0.957621 0.775938 0 
0.224181 0.957763 0 
0.0741178 0.956371 0 
0.956245 0.925887 0 
0.0427131 0.0768263 0 
0.925957 0.0437685 0 
0.0365251 0.927846 0 
0.0713895 0.0374717 0 
0.927706 0.963483 0 
0.963563 0.0722939 0 
0.501598 0.659309 0 
0.340306 0.500489 0 
0.660732 0.494392 0 
0.722858 0.193723 0 
0.485542 0.343198 0 
0.858407 0.42472 0 
0.144835 0.572974 0 
0.575818 0.859192 0 
0.423866 0.140276 0 
0.815636 0.72665 0 
0.192161 0.278338 0 
0.278522 0.817149 0 
0.570652 0.113316 0 
0.907358 0.563105 0 
0.436717 0.904931 0 
0.927928 0.225027 0 
0.230642 0.0887988 0 
0.770169 0.921379 0 
0.080921 0.771308 0 
0.0426327 0.879993 0 
0.879576 0.957367 0 
0.957735 0.120332 0 
0.117947 0.0422312 0 
0.965092 0.882534 0 
0.0318012 0.121958 0 
0.117472 0.965204 0 
0.882645 0.034948 0 
0.817987 0.033045 0 
0.182518 0.967456 0 
0.967375 0.817536 0 
0.157383 0.906506 0 
0.906138 0.842662 0 
0.843833 0.0934807 0 
0.0464154 0.195584 0 
0.105575 0.157303 0 
0.11989 0.0885007 0 
0.912258 0.120738 0 
0.879121 0.911635 0 
0.0882494 0.879884 0 
0.603772 0.383883 0 
0.617213 0.618762 0 
0.382495 0.392558 0 
0.396254 0.681115 0 
0.114793 0.374045 0 
0.458219 0.242908 0 
0.532799 0.756595 0 
0.761832 0.477358 0 
0.251588 0.518473 0 
0.682562 0.0994648 0 
0.887402 0.674245 0 
0.323889 0.888927 0 
0.0912322 0.632438 0 
0.81094 0.160088 0 
0.316964 0.0876644 0 
0.685043 0.917441 0 
0.915042 0.312585 0 
0.170105 0.64749 0 
0.834809 0.809985 0 
0.156149 0.195547 0 
0.190687 0.835108 0 
0.522693 0.924777 0 
0.924855 0.477453 0 
0.476278 0.07653 0 
0.239387 0.73292 0 
0.730435 0.766275 0 
0.271172 0.229048 0 
0.0833541 0.525936 0 
0.767012 0.270627 0 
0.814221 0.352714 0 
0.351026 0.184564 0 
0.648382 0.816385 0 
0.114925 0.820807 0 
0.886045 0.182416 0 
0.817936 0.883986 0 
0.193993 0.107433 0 
0.572398 0.0525448 0 
0.0503675 0.719982 0 
0.952081 0.5692 0 
0.430573 0.951063 0 
0.0417941 0.277525 0 
0.176193 0.0350286 0 
0.955319 0.189444 0 
0.809433 0.953379 0 
0.0470473 0.810203 0 
0.219791 0.0411839 0 
0.0386156 0.160616 0 
0.948378 0.84888 0 
0.849317 0.0517469 0 
0.151154 0.948541 0 
0.646023 0.275392 0 
0.270921 0.34684 0 
0.723239 0.658609 0 
0.441413 0.578858 0 
0.336754 0.762684 0 
0.409515 0.46628 0 
0.144227 0.494606 0 
0.836402 0.505736 0 
0.495133 0.837189 0 
0.633749 0.164258 0 
0.496452 0.155631 0 
0.58162 0.539345 0 
0.523121 0.418503 0 
0.580803 0.684207 0 
0.462306 0.717757 0 
0.299142 0.574856 0 
0.283216 0.454125 0 
0.716267 0.536385 0 
0.672762 0.417118 0 
0.41645 0.325154 0 
0.525893 0.28756 0 
0.846471 0.621047 0 
0.362339 0.845817 0 
0.118722 0.283551 0 
0.93371 0.398756 0 
0.601065 0.934078 0 
0.396982 0.0701359 0 
0.885056 0.741992 0 
0.258819 0.88619 0 
0.748811 0.123457 0 
0.219102 0.589418 0 
0.59563 0.782801 0 
0.782579 0.405977 0 
0.0612721 0.418908 0 
0.152389 0.781193 0 
0.216281 0.158506 0 
0.786231 0.844554 0 
0.411513 0.209721 0 
0.844398 0.214616 0 
0.127027 0.656888 0 
0.363377 0.937161 0 
0.937985 0.635409 0 
0.6386 0.0586252 0 
0.769861 0.219614 0 
0.700946 0.0596276 0 
0.947348 0.702428 0 
0.297381 0.947551 0 
0.674846 0.865777 0 
0.862934 0.325463 0 
0.325715 0.13652 0 
0.27426 0.0511699 0 
0.726352 0.953014 0 
0.95275 0.270806 0 
0.0474067 0.574302 0 
0.066909 0.670258 0 
0.480562 0.952166 0 
0.952561 0.519494 0 
0.519737 0.0500691 0 
0.192292 0.695607 0 
0.10126 0.727302 0 
0.111267 0.195232 0 
0.771009 0.323059 0 
0.67769 0.775825 0 
0.321472 0.223868 0 
0.0438374 0.329004 0 
0.830263 0.130957 0 
0.0356093 0.770391 0 
0.867071 0.827975 0 
0.172142 0.867598 0 
0.188301 0.0725254 0 
0.894762 0.157248 0 
0.106093 0.844062 0 
0.159303 0.101178 0 
0.842513 0.893466 0 
0.0355741 0.842438 0 
0.841879 0.964518 0 
0.96532 0.15777 0 
0.0891245 0.81488 0 
0.913317 0.186997 0 
0.812483 0.910569 0 
0.148687 0.0347709 0 
0.506585 0.576926 0 
0.199047 0.350284 0 
0.589938 0.454335 0 
0.358611 0.617837 0 
0.444519 0.395628 0 
0.322315 0.685778 0 
0.598532 0.309237 0 
0.663076 0.343368 0 
0.691473 0.605229 0 
0.649036 0.674711 0 
0.646779 0.553227 0 
0.788731 0.66756 0 
0.353791 0.44749 0 
0.339346 0.341672 0 
0.445805 0.639297 0 
0.404371 0.725961 0 
0.436264 0.51924 0 
0.22018 0.775674 0 
0.226602 0.220339 0 
0.775582 0.78334 0 
0.700284 0.261661 0 
0.744511 0.423365 0 
0.289441 0.747799 0 
0.623266 0.230796 0 
0.263459 0.38337 0 
0.152309 0.417262 0 
0.572211 0.736008 0 
0.811189 0.468252 0 
0.533615 0.813084 0 
0.565983 0.1677 0 
0.39845 0.277641 0 
0.130335 0.238007 0 
0.469035 0.186069 0 
0.487834 0.3034 0 
0.514973 0.219717 0 
0.688537 0.712324 0 
0.245439 0.296385 0 
0.506092 0.698813 0 
0.469897 0.789941 0 
0.788487 0.529392 0 
0.703769 0.497816 0 
0.846659 0.583106 0 
0.425832 0.847618 0 
0.206393 0.475952 0 
0.32584 0.816175 0 
0.780869 0.0911165 0 
0.51616 0.105926 0 
0.855283 0.700561 0 
0.705772 0.140407 0 
0.619986 0.122859 0 
0.481471 0.898094 0 
0.898668 0.518918 0 
0.0650904 0.372645 0 
0.29517 0.500116 0 
0.0814882 0.468239 0 
0.0989136 0.581535 0 
0.22316 0.910833 0 
0.910436 0.777242 0 
0.13455 0.615447 0 
0.893812 0.636296 0 
0.359578 0.892819 0 
0.701656 0.817486 0 
0.298852 0.182672 0 
0.814512 0.299692 0 
0.858239 0.376659 0 
0.376346 0.141702 0 
0.623706 0.859489 0 
0.896355 0.262822 0 
0.727248 0.90403 0 
0.274006 0.100872 0 
0.246064 0.675258 0 
0.817026 0.246451 0 
0.175712 0.146989 0 
0.557576 0.950053 0 
0.441334 0.0513897 0 
0.949986 0.442424 0 
0.0439104 0.629286 0 
0.970244 0.383555 0 
0.373985 0.0346991 0 
0.616264 0.97043 0 
0.235432 0.630543 0 
0.255887 0.561188 0 
0.963127 0.665048 0 
0.334516 0.962954 0 
0.66485 0.0359455 0 
0.769829 0.168855 0 
0.77341 0.366994 0 
0.635814 0.776222 0 
0.125245 0.759091 0 
0.529968 0.87762 0 
0.877285 0.470457 0 
0.217367 0.128065 0 
0.789966 0.879248 0 
0.882829 0.212658 0 
0.962947 0.317552 0 
0.328516 0.0400351 0 
0.681281 0.963538 0 
0.12315 0.5183 0 
0.771184 0.965519 0 
0.967198 0.227082 0 
0.467759 0.121585 0 
0.0356176 0.529369 0 
0.0813106 0.301534 0 
0.146492 0.827307 0 
0.826435 0.852739 0 
0.853602 0.172708 0 
0.716003 0.0999211 0 
0.0867922 0.696112 0 
0.294899 0.905254 0 
0.904179 0.705012 0 
0.0765465 0.212247 0 
0.15076 0.683338 0 
0.367918 0.97111 0 
0.971487 0.631701 0 
0.118253 0.692903 0 
0.632881 0.0276813 0 
0.0256604 0.423292 0 
0.810632 0.197215 0 
0.266282 0.966738 0 
0.966613 0.733759 0 
0.734143 0.0359332 0 
0.0206027 0.825753 0 
0.825397 0.979517 0 
0.980184 0.174254 0 
0.032149 0.673912 0 
0.542186 0.35503 0 
0.556084 0.623099 0 
0.386501 0.553421 0 
0.468755 0.441779 0 
0.323526 0.401444 0 
0.758687 0.608601 0 
0.305309 0.290708 0 
0.746627 0.719794 0 
0.68464 0.218975 0 
0.317416 0.641322 0 
0.190048 0.529875 0 
0.688891 0.311855 0 
0.569146 0.269298 0 
0.54012 0.459091 0 
0.300716 0.859134 0 
0.623703 0.418407 0 
0.373057 0.799317 0 
0.470579 0.605275 0 
0.15157 0.340379 0 
0.0359523 0.459588 0 
0.284092 0.70561 0 
0.184391 0.751657 0 
0.247237 0.181133 0 
0.754184 0.820437 0 
0.0843209 0.252796 0 
0.49083 0.541648 0 
0.797061 0.623967 0 
0.365288 0.71285 0 
0.564591 0.906142 0 
0.905856 0.435531 0 
0.380744 0.49357 0 
0.389493 0.431821 0 
0.38657 0.23781 0 
0.103753 0.42276 0 
0.402396 0.638196 0 
0.434275 0.0949259 0 
0.239628 0.459737 0 
0.607709 0.575803 0 
0.613705 0.500729 0 
0.533778 0.539862 0 
0.187854 0.393033 0 
0.426166 0.700352 0 
0.901339 0.361246 0 
0.63832 0.902537 0 
0.361829 0.102095 0 
0.685207 0.673389 0 
0.175642 0.601889 0 
0.685246 0.565234 0 
0.263035 0.601002 0 
0.52846 0.182784 0 
0.522153 0.965318 0 
0.477543 0.0355755 0 
0.965401 0.477882 0 
0.816481 0.772356 0 
0.184616 0.237515 0 
0.230105 0.816936 0 
0.414288 0.371638 0 
0.168807 0.463415 0 
0.0840263 0.340593 0 
0.622715 0.345563 0 
0.687132 0.460492 0 
0.68562 0.37232 0 
0.239358 0.359898 0 
0.324891 0.468355 0 
0.622037 0.705291 0 
0.535787 0.144895 0 
0.213628 0.30451 0 
0.602897 0.196235 0 
0.658573 0.637039 0 
0.464073 0.674754 0 
0.449973 0.753894 0 
0.495088 0.747772 0 
0.749272 0.505315 0 
0.753191 0.544951 0 
0.32203 0.535996 0 
0.157531 0.275905 0 
0.457637 0.322253 0 
0.368592 0.311901 0 
0.733617 0.24027 0 
0.609877 0.0807815 0 
0.444337 0.825742 0 
0.822853 0.556446 0 
0.546428 0.701714 0 
0.229248 0.263119 0 
0.927552 0.542753 0 
0.45728 0.926468 0 
0.448141 0.864132 0 
0.865278 0.553359 0 
0.861966 0.658603 0 
0.742855 0.0758179 0 
0.928428 0.739635 0 
0.260572 0.928864 0 
[...]
CELL_DATA 1342
POINT_DATA 2765
SCALARS temp float
LOOKUP_TABLE default
2.56393e-21
3.61821e-21
3.79714e-21
7.4931e-21
-4.10061e-21
-1.0293e-19
1.70294e-19
-1.7165e-18
-2.09158e-17
-5.86057e-17
2.80758e-17
-7.67259e-18
5.37168e-17
1.66798e-16
2.35626e-16
-2.18076e-16
3.19837e-17
1.42502e-17
1.08979e-18
-3.91011e-18
-6.97516e-19
1.24024e-19
1.0297e-20
-9.5212e-21
-2.45616e-19
-1.30725e-18
5.13889e-18
4.0643e-17
-1.25509e-16
-3.74535e-17
-1.30896e-17
1.87951e-16
4.59087e-16
3.81525e-16
-1.30118e-16
5.90859e-17
1.83481e-17
2.09747e-18
-3.13078e-18
-5.30891e-19
1.39924e-19
1.58378e-20
-1.40991e-20
-2.40871e-19
-1.211e-18
3.06485e-18
2.66276e-17
-9.49746e-17
-2.90897e-17
-1.19143e-17
1.64368e-16
3.50711e-16
2.75289e-16
-1.07904e-16
4.3557e-17
1.81404e-17
5.02016e-18
-4.62106e-18
-8.21167e-19
2.9333e-19
3.01851e-20
-2.67475e-20
-3.22522e-19
-1.27463e-18
3.4275e-18
2.06964e-17
-3.61419e-17
5.70871e-17
7.20791e-17
-1.52306e-16
-2.34229e-17
1.03907e-17
-9.15173e-18
1.42957e-17
9.33004e-18
5.12346e-18
-1.05296e-18
8.03272e-20
7.99534e-20
4.83287e-21
1.24717e-05
8.5785e-10
8.3009e-11
4.66451e-11
2.31463e-10
-1.38628e-12
-7.65264e-13
-1.00133e-12
-1.37919e-12
1.77958e-06
3.69411e-07
3.76244e-07
7.59861e-07
5.34815e-10
2.82603e-10
2.00232e-10
3.96068e-10
7.00206e-11
6.48182e-11
1.27259e-10
1.13996e-10
1.26558e-07
4.28106e-07
1.55815e-07
1.11235e-06
1.56864e-07
3.12343e-08
3.24025e-08
5.39309e-08
1.53428e-10
2.17334e-10
9.39208e-11
9.13185e-11
2.69891e-10
1.42915e-10
3.60165e-10
1.45483e-10
1.63404e-10
9.05866e-10
3.58657e-10
4.2588e-10
2.94082e-11
1.59411e-11
1.98928e-11
2.74338e-11
1.59262e-11
8.04388e-12
9.12047e-12
1.5145e-11
3.51416e-07
8.8053e-07
6.97725e-06
1.29636e-07
2.34382e-06
3.89425e-08
-2.87181e-09
1.31393e-08
1.69866e-08
1.62055e-08
1.22402e-08
5.82631e-08
1.01828e-07
3.08466e-08
1.12383e-08
8.53597e-09
4.42783e-09
2.01085e-09
3.851e-09
6.31032e-11
4.76044e-11
1.08649e-10
4.6264e-11
1.23448e-11
2.32566e-11
2.21783e-11
1.98124e-11
3.42931e-10
1.7608e-10
1.33115e-10
7.13064e-10
3.92217e-10
1.19344e-09
1.56741e-10
6.57741e-11
1.48859e-10
2.68346e-10
1.03203e-10
1.80556e-10
6.60878e-06
4.00985e-06
1.41407e-06
5.24072e-07
2.88736e-08
6.49114e-07
5.33816e-07
1.55071e-06
3.12642e-07
2.78082e-08
1.31919e-08
1.03004e-08
1.15309e-08
1.79106e-08
1.13025e-08
6.60571e-09
2.15881e-08
6.08086e-08
4.90498e-09
-2.08492e-10
9.6064e-09
3.1792e-08
9.38722e-08
4.87954e-08
1.88448e-07
8.23037e-08
1.22864e-07
5.96664e-09
3.64736e-07
3.5606e-07
2.36157e-07
9.96168e-08
-2.80452e-11
4.88929e-09
1.14444e-09
3.50612e-11
1.02901e-08
1.1679e-09
4.07431e-09
1.59059e-09
-9.73414e-11
1.98334e-10
1.30819e-09
4.92257e-10
5.01293e-10
6.78392e-10
2.14695e-11
5.34222e-11
1.19389e-10
8.24869e-11
5.06046e-07
6.98173e-08
4.94325e-07
1.55343e-06
1.31959e-07
3.88417e-06
3.15429e-08
2.2343e-07
6.59066e-08
2.36296e-07
1.211e-07
1.54517e-05
1.22762e-05
2.03664e-06
5.98028e-07
6.83625e-07
3.30064e-07
3.64871e-06
5.45885e-06
1.49031e-06
3.04221e-06
9.65368e-08
4.42746e-08
3.50735e-09
3.24816e-08
1.21924e-08
1.4343e-08
7.59456e-09
3.30075e-09
2.49659e-08
1.54104e-07
2.21685e-07
4.70675e-07
3.62955e-09
9.80049e-09
1.16776e-08
5.0545e-09
2.30754e-07
2.86359e-08
3.29914e-08
4.70589e-09
1.03591e-08
8.93967e-09
1.45453e-07
3.45594e-09
1.19505e-09
9.42905e-10
2.96181e-08
1.14313e-07
5.04618e-08
4.22338e-09
2.84051e-09
9.60289e-09
5.39784e-09
2.412e-09
3.10788e-09
8.33266e-09
5.62582e-09
6.78659e-08
8.4978e-09
2.0424e-09
7.77712e-07
1.48028e-07
2.95095e-07
2.03457e-09
3.30534e-09
6.79484e-10
1.68375e-09
3.14762e-09
5.78928e-10
9.17989e-10
5.20703e-10
6.29987e-10
2.65884e-10
1.40114e-10
1.28652e-10
3.15153e-10
5.66157e-10
1.63344e-09
6.21368e-10
5.78975e-11
1.42758e-05
5.15629e-08
1.9603e-05
1.10948e-06
2.82983e-06
3.49867e-07
2.45783e-06
2.32846e-06
1.93707e-06
4.00239e-07
5.33091e-06
6.73169e-08
8.67053e-07
7.2741e-07
1.51473e-06
1.96932e-07
4.82118e-06
4.23702e-08
4.00808e-08
2.3008e-08
2.07785e-07
1.52779e-06
1.40422e-07
4.66564e-07
9.78417e-08
5.6788e-08
8.62888e-07
3.96151e-07
1.4198e-07
3.33627e-07
1.13584e-06
5.97081e-09
2.46408e-07
1.73419e-06
6.79315e-07
1.94803e-07
5.49327e-08
9.21528e-07
2.88849e-07
7.32744e-07
5.06899e-06
1.73745e-07
5.6485e-08
1.36004e-07
5.66103e-08
4.53859e-09
7.57712e-08
6.52145e-09
2.91925e-08
7.76378e-08
3.53251e-08
1.1023e-07
6.25673e-09
9.57654e-07
1.43159e-08
1.58901e-08
9.80608e-10
8.0165e-10
2.70648e-08
1.80196e-08
8.77863e-09
6.02264e-08
9.59782e-08
2.59237e-07
2.08368e-07
9.36687e-08
6.87115e-08
2.11223e-08
6.65782e-09
1.05739e-08
9.62028e-08
1.21425e-07
2.30532e-09
7.06286e-09
9.20202e-09
1.90418e-08
2.73716e-09
5.64572e-09
2.38916e-09
2.17886e-09
2.22547e-07
4.14835e-07
1.78672e-09
8.95257e-10
2.41137e-09
4.84479e-08
6.3362e-07
1.85237e-07
5.54257e-09
4.3539e-08
1.27755e-07
5.20003e-09
3.1192e-09
1.17733e-08
1.13295e-08
4.59845e-09
3.71554e-09
8.42193e-09
7.23095e-10
1.74968e-09
4.75959e-08
3.5884e-09
1.97129e-09
2.50651e-09
8.96019e-10
3.84973e-09
1.60365e-08
2.9076e-09
5.04209e-09
4.3593e-09
-3.0693e-12
4.32861e-08
3.5129e-10
7.84078e-10
1.262e-08
9.45839e-10
1.98577e-09
4.16631e-08
4.51905e-10
5.71527e-10
1.50668e-09
6.56136e-11
6.20719e-11
1.43073e-10
1.35889e-09
2.36173e-06
2.98917e-06
7.8273e-07
6.17893e-06
2.64362e-07
3.60438e-07
3.41428e-07
7.34917e-08
2.4787e-07
5.85163e-07
1.04146e-07
1.54898e-06
1.64277e-06
1.69478e-05
1.42979e-08
9.6649e-06
9.53241e-08
5.28999e-06
2.20174e-08
2.04811e-09
1.87473e-07
3.52995e-08
3.57252e-08
1.95762e-08
1.27926e-09
1.35614e-05
2.30062e-07
3.29167e-07
1.56563e-08
4.22381e-08
1.92649e-06
1.30339e-06
5.03653e-07
1.72793e-08
1.6006e-06
1.88937e-08
3.07709e-07
5.85753e-06
1.26046e-05
1.55923e-05
7.26571e-08
2.08533e-07
8.17784e-08
2.63049e-08
3.69661e-08
9.13163e-07
7.33099e-08
3.14329e-06
2.65151e-07
2.90347e-07
4.75481e-09
7.53994e-09
1.32225e-08
8.98162e-09
1.40444e-08
1.87703e-08
1.96674e-06
5.63642e-08
6.10053e-09
3.51755e-06
3.62004e-06
2.70685e-06
1.05319e-07
8.23761e-07
5.95875e-07
1.4155e-07
3.16695e-08
4.46384e-07
1.54869e-06
1.08017e-06
2.12606e-07
3.51297e-07
1.41315e-06
1.27485e-06
4.43617e-07
6.94336e-09
1.59203e-06
9.94524e-07
1.73385e-07
4.21706e-08
9.77311e-08
3.78671e-07
1.23263e-06
3.26832e-08
4.42098e-08
1.49282e-08
5.5989e-08
1.80575e-07
3.4896e-08
2.94361e-09
1.09883e-09
1.4442e-09
4.89391e-08
1.95906e-08
7.36552e-09
4.71812e-08
1.06547e-06
1.00588e-07
2.6535e-07
3.20446e-08
1.66706e-08
6.55264e-08
5.26308e-09
9.7202e-07
5.48778e-07
8.40126e-08
4.22529e-07
6.05211e-08
1.72352e-06
1.92916e-07
1.55392e-09
2.70079e-09
4.63294e-09
7.51241e-07
1.70839e-08
6.04096e-08
2.68479e-08
1.19562e-07
5.11466e-08
1.68856e-09
9.10973e-09
3.64453e-07
9.78435e-10
6.89321e-10
3.2009e-07
7.15497e-07
9.30865e-09
1.34082e-08
4.6767e-09
2.1264e-09
2.8393e-09
5.40242e-09
1.41001e-07
1.06149e-07
1.87395e-09
1.01029e-07
2.54474e-07
5.76356e-09
2.7836e-09
1.49224e-08
1.36056e-08
1.80097e-09
8.01768e-09
2.64662e-08
2.01429e-07
5.30805e-09
1.25796e-09
5.84961e-09
3.59343e-09
6.31823e-09
1.49348e-08
4.20096e-06
8.26099e-06
5.31734e-06
1.08692e-06
9.99042e-06
3.68509e-06
2.69535e-06
1.71669e-06
1.81828e-06
3.06901e-07
2.66634e-06
1.44406e-06
1.01471e-06
3.67268e-06
5.11044e-07
3.8081e-08
1.50817e-08
4.71414e-08
2.19427e-07
8.86085e-06
1.60193e-05
2.59388e-08
6.98211e-08
5.88013e-07
1.18137e-05
1.22121e-06
1.57184e-08
6.96323e-07
1.76349e-06
3.09508e-08
2.07329e-07
2.97157e-06
9.25793e-06
3.83986e-07
8.48965e-07
1.07879e-06
8.36172e-09
1.21966e-08
3.35661e-06
8.23817e-08
3.56482e-07
2.7586e-08
2.27506e-06
4.57827e-06
4.79824e-08
2.02293e-07
4.35063e-07
1.05622e-08
8.22033e-08
2.33361e-07
1.42161e-07
2.45502e-07
8.29753e-07
2.32246e-08
2.24822e-07
1.56594e-06
4.46065e-07
3.45645e-08
5.87615e-06
1.15693e-07
4.64333e-07
3.05667e-06
1.79659e-06
7.63136e-07
1.83044e-06
1.8873e-06
8.21909e-08
8.52796e-09
4.32956e-07
1.73691e-07
9.91011e-09
1.4971e-08
6.3194e-09
9.53657e-10
1.46704e-07
4.68603e-06
3.82284e-07
1.35517e-07
2.12072e-07
9.88568e-08
6.45353e-07
3.21707e-09
5.94788e-07
1.1535e-07
3.24402e-07
1.3881e-07
1.97596e-08
9.11669e-06
6.67297e-06
3.74763e-07
4.16286e-07
2.00636e-07
1.00701e-06
8.85771e-08
2.88368e-07
5.80002e-09
2.35388e-09
1.19281e-08
8.65106e-07
1.4572e-06
7.46905e-07
1.97077e-08
2.04694e-06
2.76647e-07
1.44576e-07
1.86981e-06
4.43379e-07
1.99205e-06
2.54448e-06
8.02635e-06
6.09262e-07
2.117e-07
5.16835e-06
2.57585e-07
2.87554e-07
9.73281e-07
1.7822e-07
1.21396e-06
1.42901e-07
3.65968e-06
1.65688e-08
4.37261e-06
3.62951e-08
9.89918e-09
4.6567e-07
8.06297e-09
8.43148e-06
3.39742e-06
2.55714e-08
7.01787e-08
3.39867e-07
1.60549e-07
5.59895e-08
8.6031e-08
8.27754e-08
9.53296e-08
4.76903e-06
2.90187e-20
2.27509e-13
4.65073e-12
1.95932e-12
3.08301e-12
6.91832e-12
1.20399e-11
1.72753e-11
3.07718e-11
2.82017e-10
3.60912e-10
7.31657e-10
4.13135e-09
2.84475e-09
1.03628e-08
1.70786e-16
3.29359e-09
2.92906e-09
5.55596e-10
2.80374e-10
1.08972e-09
5.18836e-18
1.14889e-10
7.93128e-19
1.5638e-11
4.87252e-11
2.79467e-20
3.70109e-12
5.86325e-12
1.23374e-11
1.74765e-20
1.19316e-13
2.89089e-12
1.44307e-20
5.18742e-11
5.9436e-11
9.62946e-11
1.08955e-16
2.28113e-09
7.53957e-08
5.68266e-08
1.11327e-07
2.2126e-09
7.31657e-09
8.80112e-09
5.50343e-09
1.88527e-08
5.39118e-16
1.16745e-08
1.14001e-08
4.61891e-20
2.45586e-13
3.28693e-12
9.31003e-20
4.48491e-13
6.06356e-12
1.20496e-09
9.44039e-10
3.37312e-09
9.62471e-09
6.51347e-09
2.19449e-08
3.49201e-16
7.10145e-09
3.94528e-16
5.69014e-09
5.3086e-09
1.66727e-07
1.24497e-07
2.32025e-07
2.28491e-10
1.18604e-10
4.20937e-10
4.7374e-18
5.22296e-11
8.99795e-19
1.01839e-11
2.54231e-11
4.60973e-20
2.73763e-12
4.02596e-12
8.25654e-12
3.80056e-19
2.61125e-11
4.12373e-11
6.40934e-11
1.49671e-10
1.73037e-10
2.99988e-10
8.1853e-11
4.08927e-10
4.29666e-09
1.35339e-08
1.80539e-08
1.10111e-08
3.72174e-08
1.1031e-15
1.16192e-08
1.77632e-08
8.19266e-16
7.82586e-09
1.40825e-08
1.75749e-19
4.89293e-09
1.62401e-08
4.61252e-19
1.48308e-11
4.7419e-10
3.86215e-10
1.26169e-09
3.22821e-09
2.26332e-09
7.08552e-09
3.01539e-16
2.57974e-09
3.74559e-16
2.25807e-09
2.03352e-09
4.83152e-08
3.8596e-08
7.01801e-08
2.79796e-10
1.4986e-10
5.29588e-10
7.75123e-18
7.37939e-11
1.70804e-18
1.84838e-11
4.09306e-11
8.72466e-20
4.81744e-12
6.87387e-12
1.49183e-11
2.15355e-11
3.40682e-11
1.94905e-16
9.49816e-10
2.42249e-09
6.85817e-11
7.81034e-11
1.31988e-10
3.90852e-11
1.69192e-10
1.71565e-09
5.2729e-09
6.84108e-09
4.17328e-09
1.35132e-08
8.76292e-16
4.29757e-09
6.37516e-09
6.3558e-16
3.07434e-09
5.24448e-09
7.1135e-19
2.20638e-11
2.90791e-11
5.31508e-11
1.99567e-09
6.2795e-09
7.98359e-11
8.64072e-11
1.56795e-10
4.28747e-11
1.79864e-10
4.94518e-10
3.95296e-10
1.36543e-09
1.11681e-16
1.6359e-09
1.43951e-09
9.61025e-10
3.27187e-09
1.20383e-11
2.64746e-11
5.83199e-18
8.97308e-11
8.00534e-16
1.49021e-08
1.7922e-08
8.75255e-09
3.42169e-08
1.83461e-16
1.12777e-09
4.13182e-09
1.05378e-16
1.07692e-09
5.2028e-16
4.74534e-09
4.05221e-09
2.907e-09
9.59365e-09
2.40402e-09
2.68639e-09
5.64247e-09
1.96513e-16
1.17453e-09
2.26087e-09
1.77647e-08
1.23861e-08
1.27569e-08
1.19932e-10
1.04495e-10
2.74986e-10
2.99742e-17
1.16245e-09
1.66523e-16
1.52494e-09
1.28782e-09
1.24493e-09
3.44458e-09
3.54732e-05
4.13644e-05
2.51397e-05
1.4973e-16
4.51777e-10
1.01753e-09
3.99932e-05
3.41332e-05
2.72855e-06
4.6041e-06
2.58101e-06
2.35809e-06
2.38247e-06
1.44977e-06
2.32302e-11
4.87908e-11
3.46401e-17
6.32128e-10
1.27155e-11
2.69864e-11
4.79557e-17
7.42767e-10
5.91447e-11
1.54344e-10
3.44718e-19
1.11598e-11
1.80506e-11
1.97843e-11
4.6371e-11
5.83092e-17
2.06322e-09
1.31288e-18
1.75857e-11
1.01047e-10
3.53091e-10
4.8581e-11
1.49358e-10
4.54435e-07
4.49468e-07
2.92675e-07
7.22851e-11
2.11857e-10
8.05698e-07
6.18034e-07
8.95338e-07
1.19088e-09
2.751e-09
9.19563e-10
1.97778e-06
2.12436e-06
1.54659e-06
1.68276e-09
3.16769e-09
6.50862e-10
1.12205e-09
4.74618e-10
5.4352e-09
4.22786e-09
8.57572e-10
1.87739e-09
6.65616e-10
2.61356e-16
1.73939e-09
4.51933e-10
9.79793e-10
3.60581e-10
3.41782e-16
5.35967e-09
1.82361e-06
2.19823e-06
1.61414e-06
1.86647e-19
4.92444e-12
1.92881e-11
1.45795e-09
1.3727e-09
3.52863e-19
5.15338e-12
1.61699e-11
1.46678e-09
1.15962e-09
2.61105e-19
7.43882e-12
2.63589e-11
4.26774e-09
3.44371e-09
7.34412e-19
9.56094e-12
3.01915e-11
2.89535e-09
2.10595e-09
1.02979e-06
9.47785e-07
5.79054e-07
5.95389e-18
2.62033e-10
3.80566e-08
4.88454e-08
4.76842e-08
2.00195e-17
3.85079e-10
1.8452e-07
1.87347e-07
2.48253e-07
2.97758e-17
4.06943e-10
3.00438e-08
2.33009e-08
1.94231e-08
2.276e-17
9.55068e-10
1.58499e-09
7.51068e-10
7.25498e-10
3.17696e-06
3.604e-06
2.93996e-06
9.4303e-10
4.64481e-10
5.00349e-10
8.61064e-08
4.84438e-08
4.17782e-08
5.97434e-10
3.02417e-10
2.97731e-10
6.10662e-07
7.31039e-07
6.40501e-07
4.53312e-10
2.41138e-10
2.09179e-10
1.08256e-06
1.28703e-06
6.74781e-07
2.07519e-10
1.33691e-10
3.67031e-10
1.90812e-09
3.31586e-09
3.44806e-10
2.44592e-10
5.91564e-10
2.25978e-09
3.67834e-09
3.86756e-09
1.56299e-10
1.11383e-10
2.41957e-10
8.20335e-10
1.2681e-09
1.27448e-09
2.90997e-10
1.96684e-10
4.57404e-10
1.02639e-09
1.64738e-09
1.49463e-09
8.8104e-10
1.19939e-09
1.24214e-09
8.37413e-10
1.07234e-09
1.2981e-09
2.2493e-09
3.01883e-09
3.63503e-09
3.92903e-10
5.35705e-10
2.68642e-10
1.14562e-07
7.19666e-08
8.36829e-08
2.05033e-07
2.30136e-07
1.28012e-07
2.73892e-07
1.6672e-07
1.96324e-07
1.32941e-06
1.28466e-06
6.5785e-07
6.90786e-08
4.35798e-08
5.22358e-08
1.13173e-06
7.91018e-07
4.94896e-07
3.23617e-08
2.99782e-08
1.5704e-08
3.94108e-07
3.01509e-07
3.80638e-07
3.10147e-18
1.75105e-10
9.30456e-11
2.75838e-18
9.44034e-11
5.11086e-11
9.89752e-19
1.24677e-10
5.5092e-11
2.75866e-18
1.84478e-10
9.47666e-11
2.49174e-10
4.0534e-10
1.75576e-10
7.26716e-11
1.83192e-10
3.30815e-10
1.24553e-10
4.21945e-11
2.0167e-10
2.92509e-10
1.23962e-10
4.30302e-11
4.75992e-10
7.77956e-10
2.80181e-10
7.94392e-11
3.37646e-08
1.90899e-08
1.28482e-08
7.82306e-09
3.34914e-07
4.06178e-07
3.08272e-07
2.53838e-06
1.78369e-06
2.534e-06
7.29108e-08
3.85062e-08
1.50955e-06
1.78176e-06
1.77191e-06
4.00326e-09
1.8841e-09
4.69486e-09
1.68734e-07
2.23413e-07
1.26158e-07
1.96467e-06
2.0168e-06
1.66608e-06
7.48572e-07
1.60611e-06
4.25331e-06
3.38397e-06
5.4213e-06
5.24506e-08
8.32494e-08
4.47297e-08
3.47513e-07
3.2788e-07
7.29098e-17
8.74712e-10
1.55711e-09
1.10091e-06
7.64223e-07
1.30899e-06
1.91358e-08
2.87846e-08
1.60943e-08
2.22564e-06
1.71006e-06
1.57678e-06
3.16095e-06
2.181e-06
3.3143e-06
1.84794e-09
8.8619e-10
1.65074e-09
1.0517e-06
5.70046e-07
7.13785e-07
2.36565e-17
2.32507e-10
8.46744e-10
7.49401e-10
1.21491e-09
6.10461e-10
1.36813e-09
5.14692e-07
5.35466e-07
4.60482e-07
6.03342e-17
7.7153e-10
1.12426e-07
8.99708e-08
6.3874e-08
2.70576e-07
2.1363e-07
1.50463e-07
6.34697e-17
3.15549e-10
9.68054e-08
7.81526e-08
5.37744e-08
6.6745e-17
2.82823e-10
4.6421e-07
4.35585e-07
5.7164e-07
3.54658e-09
9.48936e-09
1.98532e-07
1.82391e-07
2.25757e-07
2.05419e-08
1.43028e-08
3.24483e-08
1.82085e-07
1.70469e-07
2.4471e-07
1.09033e-09
2.6501e-09
5.51134e-06
5.34659e-06
2.25472e-09
5.2978e-09
6.89858e-10
3.3738e-10
4.17925e-10
1.20483e-10
6.54469e-10
3.12102e-10
3.98023e-10
7.84409e-11
1.65943e-09
7.60273e-10
9.79081e-10
1.64181e-10
4.77704e-10
5.23421e-10
7.93772e-11
1.17966e-10
3.98584e-11
1.54042e-10
4.80712e-11
2.16163e-10
7.43525e-11
2.44147e-10
7.02626e-11
7.90683e-10
3.81891e-10
1.13382e-10
4.34077e-10
3.03214e-10
9.83678e-11
3.21206e-10
1.67144e-10
5.67198e-11
2.63042e-07
3.30875e-07
1.65525e-07
2.88149e-08
2.35552e-08
1.2849e-08
1.13116e-07
1.12202e-07
6.41796e-08
8.5901e-10
1.81091e-09
4.55938e-11
8.52412e-10
4.67635e-08
3.85077e-08
2.12156e-08
6.77038e-10
7.98768e-10
2.8119e-10
5.42847e-10
2.34406e-05
1.48587e-05
2.20138e-05
1.21797e-05
1.42561e-05
8.54719e-06
2.98123e-06
6.21743e-06
4.08232e-05
3.31887e-05
2.93216e-05
4.10852e-06
4.09998e-06
2.94104e-06
6.85578e-06
4.84102e-06
7.58403e-06
5.81897e-06
7.1367e-06
4.63723e-06
6.43451e-08
4.73826e-08
3.68277e-08
3.37223e-07
4.96988e-07
5.91915e-10
3.93994e-06
3.17943e-06
8.11945e-07
7.55045e-07
5.40325e-07
3.95313e-07
4.49647e-07
1.27587e-07
1.30749e-07
1.55438e-05
1.34849e-05
3.44882e-07
3.826e-07
2.68431e-06
1.77253e-06
1.60592e-06
9.28569e-08
1.32896e-07
9.03521e-08
1.36653e-09
1.43971e-09
2.45635e-09
2.82634e-07
1.87937e-07
1.66471e-07
4.65444e-10
5.30076e-10
7.04902e-10
2.86208e-08
2.32457e-08
1.76663e-08
5.816e-10
5.78265e-10
8.11753e-10
1.96416e-08
1.74205e-08
2.82489e-08
9.13841e-07
6.31256e-07
4.86948e-07
4.01964e-08
1.91691e-08
2.35794e-09
6.0615e-09
1.61441e-08
2.10946e-08
9.00342e-09
4.07919e-08
1.45389e-08
1.23499e-16
2.48255e-08
9.53757e-09
3.22263e-09
4.58446e-09
1.95148e-09
1.36559e-07
6.37424e-08
1.33269e-07
8.77388e-09
1.29557e-08
6.63638e-09
4.97337e-08
4.16036e-08
2.46078e-16
2.25256e-09
2.15952e-09
8.6944e-10
2.09092e-09
4.28337e-08
6.10842e-08
4.7757e-09
6.93602e-09
4.20301e-09
4.29095e-08
3.30272e-08
5.22525e-08
1.20468e-09
2.7119e-09
1.18543e-07
1.03257e-07
1.70525e-07
2.64088e-08
3.03392e-08
1.94745e-08
1.11884e-16
7.10728e-10
7.70831e-10
7.39078e-08
8.499e-08
5.22055e-08
1.29882e-16
1.16331e-09
1.59623e-09
1.17964e-07
1.49885e-07
6.96374e-08
9.21283e-17
1.96461e-09
1.90484e-09
1.31128e-07
1.34494e-07
3.16822e-07
2.05735e-07
1.5964e-07
6.95393e-07
4.57698e-07
1.83566e-07
1.19327e-07
8.39766e-08
1.06557e-08
9.16845e-09
1.59744e-08
3.1846e-07
1.90668e-07
1.46005e-07
5.22906e-08
3.26578e-08
2.61833e-08
3.31986e-08
3.1786e-08
5.10835e-08
3.66388e-08
3.93564e-08
2.41036e-08
3.46182e-07
3.06521e-07
4.08891e-07
7.97982e-09
2.15047e-08
1.21099e-06
8.66942e-07
9.04023e-07
3.13691e-08
3.40165e-08
4.4199e-07
3.40697e-07
2.97379e-09
7.20977e-09
2.39697e-07
1.87549e-07
4.81191e-10
2.00778e-07
2.00294e-07
8.90647e-08
7.97187e-10
1.65625e-07
1.0396e-07
2.8119e-10
1.07858e-07
1.06349e-07
4.46026e-08
1.35297e-09
1.67626e-07
1.65245e-07
6.89981e-08
4.00059e-07
3.09918e-07
5.44546e-07
5.01441e-08
6.13456e-08
3.20184e-09
4.28387e-09
1.54545e-09
2.95465e-08
1.77945e-08
2.0803e-08
1.80151e-07
9.26339e-08
1.45482e-07
4.28998e-08
6.53396e-08
5.65385e-08
3.11982e-08
3.93934e-08
1.54201e-08
2.27422e-08
6.33283e-09
1.25257e-08
4.58204e-09
2.54522e-08
3.44494e-08
1.58389e-08
3.54154e-10
2.03683e-10
1.90296e-10
4.13168e-09
3.1622e-09
1.51595e-09
1.84465e-08
8.85824e-09
9.05199e-09
6.58686e-09
3.0875e-09
6.04026e-09
3.22694e-09
2.90248e-09
2.43814e-09
1.16559e-09
6.32692e-09
3.49305e-09
2.9676e-09
2.70147e-09
1.21652e-09
1.93226e-08
3.48542e-08
1.32775e-08
2.6546e-09
1.67152e-05
1.11494e-05
1.36855e-05
6.01895e-07
6.85941e-07
5.09891e-07
3.56378e-06
3.29837e-06
4.74528e-06
2.29292e-07
1.07238e-07
1.24458e-05
8.79615e-06
1.57212e-05
3.3806e-07
2.44448e-07
3.60019e-07
9.22825e-06
7.79475e-06
9.31725e-06
8.61871e-07
7.61594e-07
6.81381e-07
2.42694e-07
1.89934e-07
1.32932e-07
5.5886e-07
4.14142e-07
6.21876e-07
3.72894e-07
5.24689e-07
4.17879e-07
3.25705e-05
3.1908e-05
2.15307e-05
1.24216e-06
1.26393e-06
1.16672e-07
6.27278e-08
8.45652e-08
2.56793e-06
1.03453e-06
1.85203e-06
5.09327e-07
5.22557e-07
2.78637e-07
1.37178e-06
9.14933e-07
1.70838e-06
1.5629e-07
1.66607e-07
8.9244e-08
2.34445e-08
2.69714e-08
1.26521e-08
6.56158e-07
8.61516e-07
5.94182e-07
1.52627e-07
1.80737e-07
2.30515e-07
2.05307e-07
1.34223e-07
1.00668e-05
9.25865e-06
7.14643e-06
4.9638e-06
4.28996e-06
6.15536e-06
9.31001e-07
1.03207e-06
7.27176e-07
6.74374e-06
6.06184e-06
5.91877e-06
3.5379e-05
3.26771e-05
3.77811e-05
2.77675e-07
2.89281e-07
3.37621e-07
6.49614e-06
4.61049e-06
3.58145e-06
1.94259e-06
1.18908e-06
1.96262e-06
3.25034e-08
3.33569e-08
2.12542e-08
9.64568e-07
1.20726e-06
1.14911e-06
4.39306e-07
2.28429e-07
4.35117e-07
2.38568e-07
3.18469e-07
1.31297e-05
1.03824e-05
8.10593e-06
1.51046e-06
1.04525e-06
1.18553e-06
2.59755e-05
2.64078e-05
1.77908e-05
1.22316e-06
1.07456e-06
1.59092e-06
2.03512e-05
1.55736e-05
1.29344e-05
1.13548e-06
6.0385e-07
3.61188e-06
3.06477e-06
2.18773e-06
9.2501e-06
1.11066e-05
6.04436e-06
3.50161e-08
1.90466e-08
2.25187e-08
3.89443e-08
3.38226e-08
6.12763e-08
1.14425e-07
7.26727e-08
8.81524e-08
3.2504e-07
2.54881e-07
2.07398e-07
1.17022e-09
2.6849e-09
9.35495e-16
1.04584e-08
4.32266e-08
7.83168e-08
2.90516e-08
7.83412e-16
3.80109e-09