# vtk DataFile Version 3.0
HEAT EQUATION
ASCII
DATASET UNSTRUCTURED_GRID
POINTS 14 float
0 1 0 
1 0 0 
0 0 0 
1 1 0 
0 0 1 
0 1 1 
1 0 1 
1 1 1 
0.5 0.5 0 
0 0.5 0.5 
0.5 0 0.5 
0.5 0.5 1 
0.5 1 0.5 
1 0.5 0.5 
CELLS 24 120
4 2 1 8 10
4 6 10 11 13
4 1 10 13 8
4 6 11 7 13
4 5 9 0 12
4 4 9 11 10
4 6 10 13 1
4 3 7 12 13
4 5 12 11 9
4 3 12 0 8
4 13 12 11 7
4 9 8 0 12
4 9 12 11 13
4 9 8 12 13
4 3 8 13 12
4 9 11 10 13
4 4 6 10 11
4 2 4 10 9
4 9 13 10 8
4 5 7 11 12
4 2 10 8 9
4 5 4 9 11
4 3 1 13 8
4 2 8 0 9
CELL_TYPES 24
10
10
10
10
10
10
10
10
10
10
10
10
10
10
10
10
10
10
10
10
10
10
10
10
CELL_DATA 24
POINT_DATA 14
SCALARS temp float
LOOKUP_TABLE default
3.05661e-09
-4.3163e-09
-0.0202115
5.19162e-10
4.41433e-08
5.39597e-08
4.6727e-08
-1.10677e-08
0.0100516
-0.0287154
-0.059452
0.249999
-6.52852e-08
-1.03968e-07
