# vtk DataFile Version 3.0
HEAT EQUATION
ASCII
DATASET UNSTRUCTURED_GRID
POINTS 1675 float
0 1 0 
1 0 0 
0 0 0 
1 1 0 
0 0 1 
0 1 1 
1 0 1 
1 1 1 
0.9 0 0 
0.8 0 0 
0.7 0 0 
0.6 0 0 
0.5 0 0 
0.4 0 0 
0.3 0 0 
0.2 0 0 
0.1 0 0 
0 0.1 0 
0 0.2 0 
0 0.3 0 
0 0.4 0 
0 0.5 0 
0 0.6 0 
0 0.7 0 
0 0.8 0 
0 0.9 0 
0.1 1 0 
0.2 1 0 
0.3 1 0 
0.4 1 0 
0.5 1 0 
0.6 1 0 
0.7 1 0 
0.8 1 0 
0.9 1 0 
1 0.9 0 
1 0.8 0 
1 0.7 0 
1 0.6 0 
1 0.5 0 
1 0.4 0 
1 0.3 0 
1 0.2 0 
1 0.1 0 
0 0 0.1 
0 0 0.2 
0 0 0.3 
0 0 0.4 
0 0 0.5 
0 0 0.6 
0 0 0.7 
0 0 0.8 
0 0 0.9 
0 0.1 1 
0 0.2 1 
0 0.3 1 
0 0.4 1 
0 0.5 1 
0 0.6 1 
0 0.7 1 
0 0.8 1 
0 0.9 1 
0 1 0.9 
0 1 0.8 
0 1 0.7 
0 1 0.6 
0 1 0.5 
0 1 0.4 
0 1 0.3 
0 1 0.2 
0 1 0.1 
1 0 0.1 
1 0 0.2 
1 0 0.3 
1 0 0.4 
1 0 0.5 
1 0 0.6 
1 0 0.7 
1 0 0.8 
1 0 0.9 
0.9 0 1 
0.8 0 1 
0.7 0 1 
0.6 0 1 
0.5 0 1 
0.4 0 1 
0.3 0 1 
0.2 0 1 
0.1 0 1 
1 0.1 1 
1 0.2 1 
1 0.3 1 
1 0.4 1 
1 0.5 1 
1 0.6 1 
1 0.7 1 
1 0.8 1 
1 0.9 1 
0.9 1 1 
0.8 1 1 
0.7 1 1 
0.6 1 1 
0.5 1 1 
0.4 1 1 
0.3 1 1 
0.2 1 1 
0.1 1 1 
1 1 0.9 
1 1 0.8 
1 1 0.7 
1 1 0.6 
1 1 0.5 
1 1 0.4 
1 1 0.3 
1 1 0.2 
1 1 0.1 
0.462998 0.534722 0 
0.442292 0.430785 0 
0.567458 0.558436 0 
0.55103 0.452316 0 
0.0683013 0.931699 0 
0.0816495 0.849135 0 
0.150067 0.917759 0 
0.0893936 0.753332 0 
0.246404 0.910861 0 
0.0866025 0.65 0 
0.35 0.913397 0 
0.0866025 0.55 0 
0.45 0.913397 0 
0.0866025 0.45 0 
0.55 0.913397 0 
0.0866025 0.35 0 
0.65 0.913397 0 
0.0892092 0.246309 0 
0.753371 0.910624 0 
0.0822411 0.150067 0 
0.849933 0.917759 0 
0.0683013 0.0683013 0 
0.931699 0.931699 0 
0.150865 0.0816495 0 
0.91835 0.849135 0 
0.247142 0.0898317 0 
0.909959 0.752743 0 
0.35 0.0866025 0 
0.913397 0.65 0 
0.45 0.0866025 0 
0.913397 0.55 0 
0.55 0.0866025 0 
0.913397 0.45 0 
0.65 0.0866025 0 
0.913397 0.35 0 
0.753506 0.089109 0 
0.910097 0.246924 0 
0.849135 0.0816495 0 
0.917759 0.150067 0 
0.931699 0.0683013 0 
0.184305 0.815825 0 
0.174633 0.704023 0 
0.295941 0.826744 0 
0.178214 0.603061 0 
0.396907 0.822991 0 
0.176907 0.501 0 
0.498528 0.824231 0 
0.173205 0.4 0 
0.6 0.826795 0 
0.173231 0.295528 0 
0.703144 0.825974 0 
0.184641 0.184416 0 
0.815546 0.815546 0 
0.297507 0.176665 0 
0.822493 0.701964 0 
0.398836 0.178022 0 
0.822161 0.601022 0 
0.5 0.173205 0 
0.826795 0.5 0 
0.6 0.173205 0 
0.822124 0.398464 0 
0.704562 0.173223 0 
0.823362 0.297487 0 
0.815546 0.184454 0 
0.253402 0.747592 0 
0.270046 0.657948 0 
0.34201 0.733606 0 
0.271399 0.555883 0 
0.443826 0.729361 0 
0.264937 0.449068 0 
0.550081 0.734409 0 
0.262791 0.343862 0 
0.654493 0.735193 0 
0.252719 0.253722 0 
0.744008 0.745588 0 
0.347645 0.278412 0 
0.72173 0.651333 0 
0.454176 0.261516 0 
0.73913 0.546522 0 
0.553116 0.261213 0 
0.739035 0.452432 0 
0.655995 0.262975 0 
0.721588 0.347645 0 
0.746325 0.252721 0 
0.378166 0.621662 0 
0.360603 0.499266 0 
0.499769 0.63918 0 
0.347472 0.391058 0 
0.607659 0.651984 0 
0.506564 0.350349 0 
0.652163 0.500589 0 
0.607249 0.349062 0 
0.421001 0.34115 0 
0.658764 0.57879 0 
0.65885 0.421001 0 
0 0.462998 0.534722 
0 0.442292 0.430785 
0 0.567458 0.558436 
0 0.55103 0.452316 
0 0.0683013 0.931699 
0 0.0816495 0.849135 
0 0.150067 0.917759 
0 0.0893936 0.753332 
0 0.246404 0.910861 
0 0.0866025 0.65 
0 0.35 0.913397 
0 0.0866025 0.55 
0 0.45 0.913397 
0 0.0866025 0.45 
0 0.55 0.913397 
0 0.0866025 0.35 
0 0.65 0.913397 
0 0.0892092 0.246309 
0 0.753371 0.910624 
0 0.0822411 0.150067 
0 0.849933 0.917759 
0 0.0683013 0.0683013 
0 0.931699 0.931699 
0 0.150865 0.0816495 
0 0.91835 0.849135 
0 0.247142 0.0898317 
0 0.909959 0.752743 
0 0.35 0.0866025 
0 0.913397 0.65 
0 0.45 0.0866025 
0 0.913397 0.55 
0 0.55 0.0866025 
0 0.913397 0.45 
0 0.65 0.0866025 
0 0.913397 0.35 
0 0.753506 0.089109 
0 0.910097 0.246924 
0 0.849135 0.0816495 
0 0.917759 0.150067 
0 0.931699 0.0683013 
0 0.184305 0.815825 
0 0.174633 0.704023 
0 0.295941 0.826744 
0 0.178214 0.603061 
0 0.396907 0.822991 
0 0.176907 0.501 
0 0.498528 0.824231 
0 0.173205 0.4 
0 0.6 0.826795 
0 0.173231 0.295528 
0 0.703144 0.825974 
0 0.184641 0.184416 
0 0.815546 0.815546 
0 0.297507 0.176665 
0 0.822493 0.701964 
0 0.398836 0.178022 
0 0.822161 0.601022 
0 0.5 0.173205 
0 0.826795 0.5 
0 0.6 0.173205 
0 0.822124 0.398464 
0 0.704562 0.173223 
0 0.823362 0.297487 
0 0.815546 0.184454 
0 0.253402 0.747592 
0 0.270046 0.657948 
0 0.34201 0.733606 
0 0.271399 0.555883 
0 0.443826 0.729361 
0 0.264937 0.449068 
0 0.550081 0.734409 
0 0.262791 0.343862 
0 0.654493 0.735193 
0 0.252719 0.253722 
0 0.744008 0.745588 
0 0.347645 0.278412 
0 0.72173 0.651333 
0 0.454176 0.261516 
0 0.73913 0.546522 
0 0.553116 0.261213 
0 0.739035 0.452432 
0 0.655995 0.262975 
0 0.721588 0.347645 
0 0.746325 0.252721 
0 0.378166 0.621662 
0 0.360603 0.499266 
0 0.499769 0.63918 
0 0.347472 0.391058 
0 0.607659 0.651984 
0 0.506564 0.350349 
0 0.652163 0.500589 
0 0.607249 0.349062 
0 0.421001 0.34115 
0 0.658764 0.57879 
0 0.65885 0.421001 
0.534722 0 0.462998 
0.430785 0 0.442292 
0.558436 0 0.567458 
0.452316 0 0.55103 
0.931699 0 0.0683013 
0.849135 0 0.0816495 
0.917759 0 0.150067 
0.753332 0 0.0893936 
0.910861 0 0.246404 
0.65 0 0.0866025 
0.913397 0 0.35 
0.55 0 0.0866025 
0.913397 0 0.45 
0.45 0 0.0866025 
0.913397 0 0.55 
0.35 0 0.0866025 
0.913397 0 0.65 
0.246494 0 0.089109 
0.910624 0 0.753371 
0.150865 0 0.0816495 
0.917759 0 0.849933 
0.0683013 0 0.0683013 
0.931699 0 0.931699 
0.0822411 0 0.150067 
0.849135 0 0.91835 
0.0899062 0 0.246931 
0.752743 0 0.909959 
0.0866025 0 0.35 
0.65 0 0.913397 
0.0866025 0 0.45 
0.55 0 0.913397 
0.0866025 0 0.55 
0.45 0 0.913397 
0.0866025 0 0.65 
0.35 0 0.913397 
0.089109 0 0.753506 
0.246924 0 0.910097 
0.0816495 0 0.849135 
0.150067 0 0.917759 
0.0683013 0 0.931699 
0.815825 0 0.184305 
0.704023 0 0.174633 
0.826744 0 0.295941 
0.603061 0 0.178214 
0.822991 0 0.396907 
0.500999 0 0.176907 
0.824231 0 0.498528 
0.4 0 0.173205 
0.826795 0 0.6 
0.295438 0 0.173223 
0.825974 0 0.703144 
0.184454 0 0.184454 
0.815546 0 0.815546 
0.176644 0 0.297525 
0.701964 0 0.822493 
0.178022 0 0.398836 
0.601022 0 0.822161 
0.173205 0 0.5 
0.5 0 0.826795 
0.173205 0 0.6 
0.398464 0 0.822124 
0.173223 0 0.704562 
0.297487 0 0.823362 
0.184454 0 0.815546 
0.747592 0 0.253402 
0.657948 0 0.270046 
0.733606 0 0.34201 
0.555883 0 0.271399 
0.729361 0 0.443826 
0.449066 0 0.264937 
0.734409 0 0.550081 
0.343851 0 0.262786 
0.735193 0 0.654493 
0.253675 0 0.252721 
0.745588 0 0.744008 
0.278412 0 0.347645 
0.651333 0 0.72173 
0.261516 0 0.454176 
0.546522 0 0.73913 
0.261213 0 0.553116 
0.452432 0 0.739035 
0.262975 0 0.655995 
0.347645 0 0.721588 
0.252721 0 0.746325 
0.621662 0 0.378166 
0.499266 0 0.360603 
0.63918 0 0.499769 
0.391058 0 0.347472 
0.651984 0 0.607659 
0.350349 0 0.506564 
0.500589 0 0.652163 
0.349062 0 0.607249 
0.34115 0 0.421001 
0.57879 0 0.658764 
0.421001 0 0.65885 
0.465278 0.537002 1 
0.569215 0.557708 1 
0.441564 0.432542 1 
0.547684 0.44897 1 
0.0683013 0.931699 1 
0.150865 0.91835 1 
0.0822411 0.849933 1 
0.246668 0.910606 1 
0.0891393 0.753596 1 
0.35 0.913397 1 
0.0866025 0.65 1 
0.45 0.913397 1 
0.0866025 0.55 1 
0.55 0.913397 1 
0.0866025 0.45 1 
0.65 0.913397 1 
0.0866025 0.35 1 
0.753691 0.910791 1 
0.0893761 0.246629 1 
0.849933 0.917759 1 
0.0822411 0.150067 1 
0.931699 0.931699 1 
0.0683013 0.0683013 1 
0.91835 0.849135 1 
0.150865 0.0816495 1 
0.910168 0.752858 1 
0.247257 0.0900412 1 
0.913397 0.65 1 
0.35 0.0866025 1 
0.913397 0.55 1 
0.45 0.0866025 1 
0.913397 0.45 1 
0.55 0.0866025 1 
0.913397 0.35 1 
0.65 0.0866025 1 
0.910891 0.246494 1 
0.753076 0.0899035 1 
0.91835 0.150865 1 
0.849933 0.0822411 1 
0.931699 0.0683013 1 
0.184175 0.815695 1 
0.295977 0.825367 1 
0.173256 0.704059 1 
0.396939 0.821786 1 
0.177009 0.603093 1 
0.499 0.823093 1 
0.175769 0.501472 1 
0.6 0.826795 1 
0.173205 0.4 1 
0.704472 0.826769 1 
0.174026 0.296856 1 
0.815584 0.815359 1 
0.184454 0.184454 1 
0.823335 0.702493 1 
0.298036 0.177507 1 
0.821978 0.601164 1 
0.398978 0.177839 1 
0.826795 0.5 1 
0.5 0.173205 1 
0.826795 0.4 1 
0.601536 0.177876 1 
0.826777 0.295438 1 
0.702513 0.176638 1 
0.815546 0.184454 1 
0.252408 0.746598 1 
0.342052 0.729954 1 
0.266394 0.65799 1 
0.444117 0.728601 1 
0.270639 0.556174 1 
0.550932 0.735063 1 
0.265591 0.449919 1 
0.656138 0.737209 1 
0.264807 0.345507 1 
0.746278 0.747281 1 
0.254412 0.255992 1 
0.721588 0.652355 1 
0.348667 0.27827 1 
0.738484 0.545824 1 
0.453478 0.26087 1 
0.738787 0.446884 1 
0.547568 0.260965 1 
0.737025 0.344005 1 
0.652355 0.278412 1 
0.747279 0.253675 1 
0.378338 0.621834 1 
0.500734 0.639397 1 
0.36082 0.500231 1 
0.608942 0.652528 1 
0.348016 0.392341 1 
0.649651 0.493436 1 
0.499411 0.347837 1 
0.650938 0.392751 1 
0.65885 0.578999 1 
0.42121 0.341236 1 
0.578999 0.34115 1 
0.537002 1 0.465278 
0.557708 1 0.569215 
0.432542 1 0.441564 
0.44897 1 0.547684 
0.931699 1 0.0683013 
0.91835 1 0.150865 
0.849933 1 0.0822411 
0.910606 1 0.246668 
0.753596 1 0.0891393 
0.913397 1 0.35 
0.65 1 0.0866025 
0.913397 1 0.45 
0.55 1 0.0866025 
0.913397 1 0.55 
0.45 1 0.0866025 
0.913397 1 0.65 
0.35 1 0.0866025 
0.910791 1 0.753691 
0.246629 1 0.0893761 
0.917759 1 0.849933 
0.150067 1 0.0822411 
0.931699 1 0.931699 
0.0683013 1 0.0683013 
0.849135 1 0.91835 
0.0816495 1 0.150865 
0.752858 1 0.910168 
0.0900412 1 0.247257 
0.65 1 0.913397 
0.0866025 1 0.35 
0.55 1 0.913397 
0.0866025 1 0.45 
0.45 1 0.913397 
0.0866025 1 0.55 
0.35 1 0.913397 
0.0866025 1 0.65 
0.246494 1 0.910891 
0.0899035 1 0.753076 
0.150865 1 0.91835 
0.0822411 1 0.849933 
0.0683013 1 0.931699 
0.815695 1 0.184175 
0.825367 1 0.295977 
0.704059 1 0.173256 
0.821786 1 0.396939 
0.603093 1 0.177009 
0.823093 1 0.499 
0.501472 1 0.175769 
0.826795 1 0.6 
0.4 1 0.173205 
0.826769 1 0.704472 
0.296856 1 0.174026 
0.815359 1 0.815584 
0.184454 1 0.184454 
0.702493 1 0.823335 
0.177507 1 0.298036 
0.601164 1 0.821978 
0.177839 1 0.398978 
0.5 1 0.826795 
0.173205 1 0.5 
0.4 1 0.826795 
0.177876 1 0.601536 
0.295438 1 0.826777 
[...]
CELL_DATA 7801
POINT_DATA 1675
SCALARS temp float
LOOKUP_TABLE default
5.03926e-12
2.68134e-09
0.00010208
1.35616e-08
6.21124e-12
5.99235e-12
1.25897e-10
3.71142e-09
0.0418351
0.0416437
0.0254513
0.0119219
0.00469043
0.0017251
0.000670534
0.000281771
0.000131076
0.000110922
0.000172434
0.000232669
0.000286925
0.000343722
0.000377711
0.00041203
0.000334296
0.00019706
1.03991e-11
2.35384e-11
4.36543e-11
7.56875e-11
1.68998e-10
3.92234e-10
1.00958e-09
2.22354e-09
4.31418e-10
4.23314e-08
3.19605e-08
2.11572e-08
1.21519e-08
2.99516e-08
2.07705e-08
1.23504e-08
2.44748e-08
1.26846e-08
0.000108464
0.000180686
0.000245709
0.000309367
0.00035044
0.000409786
0.000466409
0.000377804
0.000253628
9.20431e-12
1.52822e-11
2.47042e-11
3.0423e-11
4.01233e-11
4.18538e-11
4.69951e-11
3.91597e-11
1.96496e-11
2.01483e-11
3.36508e-11
4.27798e-11
3.87938e-11
3.41192e-11
2.72545e-11
2.15845e-11
1.3433e-11
8.19328e-12
9.89189e-09
1.40892e-08
9.43968e-09
1.22543e-08
2.00621e-08
1.85788e-08
7.85704e-09
1.04351e-09
5.37065e-10
3.30613e-10
5.04641e-10
4.49294e-10
2.598e-10
1.52279e-10
8.49473e-11
5.34461e-11
2.79292e-11
1.22502e-11
-1.63119e-10
-3.20561e-10
2.01301e-10
3.85346e-09
1.06928e-08
1.0491e-08
9.26913e-09
5.04203e-09
1.05516e-08
-1.65484e-09
-7.69196e-10
-7.57599e-11
2.24623e-10
1.79864e-10
1.67303e-10
1.22181e-10
4.97217e-11
5.95734e-13
1.88034e-08
1.01172e-08
3.38858e-09
8.91117e-09
8.87743e-09
1.54859e-08
2.07947e-08
6.96108e-09
3.30947e-08
0.00581861
0.00466501
0.0133168
0.0118274
0.000169682
0.000363167
0.000339152
0.000466583
0.000618649
0.000477894
0.00106364
0.000449388
0.00218154
0.000404377
0.00492177
0.000345719
0.0116361
0.000269199
0.0302122
0.000186998
0.0633683
0.000123654
0.0542933
0.000228229
0.0853609
0.000456764
0.0955104
0.00105646
0.114748
0.00283329
0.0774856
0.00762925
0.0685178
0.0187025
0.0839919
0.0379975
0.0722158
0.0562368
0.0617334
0.0491332
0.000755851
0.000838782
0.00130253
0.000838033
0.00242104
0.000740046
0.00530175
0.000586093
0.0129153
0.000480685
0.0313707
0.000386553
0.0782061
0.000847841
0.0812126
0.00215217
0.0782778
0.00571776
0.0738667
0.0137215
0.0721476
0.03115
0.0683458
0.0619615
0.00125229
0.00149931
0.00217182
0.00147951
0.00449312
0.00118827
0.010762
0.00102301
0.0255127
0.000747947
0.0492025
0.00169453
0.0441898
0.00413676
0.0483506
0.010148
0.0468277
0.0245603
0.0413493
0.0450811
0.00320128
0.00259582
0.00761245
0.00206542
0.0181496
0.00732986
0.0251227
0.0175652
0.00328429
0.0264762
0.0259736
0.00131095
0.00104641
0.00152272
0.00127401
0.000197856
0.000399105
0.000320072
0.00052058
0.000432581
0.000506228
0.000558244
0.000440029
0.000684577
0.000356925
0.000777364
0.000294644
0.000901782
0.000228139
0.000949421
0.000159922
0.000703334
0.000114146
0.000330063
0.000171587
0.000719235
0.000238867
0.00092754
0.000307868
0.000894536
0.000352669
0.000788127
0.000407548
0.000677704
0.000454819
0.00055329
0.00045283
0.000434364
0.000337093
0.000268141
0.000162362
0.000626282
0.000702006
0.000835467
0.000650289
0.0010418
0.000567742
0.00127317
0.000455197
0.00145939
0.00034106
0.00150421
0.000267809
0.00140465
0.000355902
0.00153064
0.000442415
0.00141289
0.000505799
0.00117736
0.000571214
0.0010214
0.000603104
0.000787151
0.000560191
0.000828239
0.000948108
0.00111834
0.000877892
0.0014106
0.0007013
0.0016426
0.000531201
0.00175741
0.000378195
0.00167305
0.000576755
0.00178913
0.000659964
0.00151659
0.000761461
0.00131652
0.00082888
0.00106731
0.000756135
0.00130816
0.0010379
0.00156806
0.000758627
0.00169761
0.000929255
0.00142859
0.00104219
0.000774285
0.00157579
0.0012399
0.0106078
0.00472273
0.0122252
0.00593405
0.0492684
0.0540269
0.0602261
0.0377894
0.0578254
0.0183592
0.0595401
0.00786737
0.0702139
0.00308204
0.0682875
0.00114707
0.0487984
0.000476737
0.0324772
0.00023498
0.0194816
0.00012294
0.00676291
0.000181096
0.0115091
0.000267326
0.0115127
0.000341003
0.00702404
0.000426822
0.00405606
0.00050298
0.00228293
0.000573581
0.00133044
0.000550547
0.000770449
0.000439931
0.000418078
0.000211663
0.0524783
0.0289504
0.0577024
0.0137874
0.0696851
0.00580029
0.0686985
0.00226636
0.0663569
0.000878017
0.0452083
0.000405566
0.0272823
0.000521712
0.0172739
0.000688836
0.00931494
0.000770439
0.00524969
0.000898366
0.00283963
0.000985692
0.00168541
0.00091591
0.0402485
0.0241203
0.042251
0.0108302
0.0431396
0.00437704
0.0425822
0.00167319
0.0364478
0.000764429
0.0287059
0.00122417
0.0185502
0.00128407
0.00879499
0.00152666
0.00465612
0.00161122
0.00268937
0.00147515
0.020762
0.00751132
0.0240614
0.00290555
0.0238889
0.00264644
0.00742593
0.00274847
0.00214643
0.0127495
0.00427642
1.73346e-09
0.00745419
8.62167e-10
2.05864e-09
4.95948e-11
1.50372e-10
1.02832e-10
4.43341e-10
1.63643e-10
6.37501e-10
1.3976e-10
8.72702e-10
1.21069e-10
7.23583e-10
9.74068e-11
6.7735e-10
7.63431e-11
1.55006e-09
7.74289e-11
4.9745e-09
3.61917e-11
5.12e-09
2.27095e-11
7.59066e-09
4.94974e-11
7.64517e-09
1.20412e-10
8.73269e-09
2.14911e-10
1.48325e-08
3.17099e-10
1.52348e-08
5.88853e-10
7.65354e-09
8.81029e-10
2.95062e-09
1.53283e-09
1.96836e-09
1.46103e-09
9.49475e-10
3.82346e-10
6.09405e-10
2.90382e-10
1.0005e-09
2.72767e-10
1.0961e-09
2.51946e-10
1.19847e-09
2.27344e-10
1.01947e-09
1.36405e-10
4.15648e-09
1.40125e-10
3.74836e-09
2.34158e-10
8.54632e-09
3.56914e-10
0.148319
6.3133e-10
9.20431e-09
9.69687e-10
3.769e-09
1.6131e-09
3.21815e-09
4.29988e-10
7.89105e-10
5.78136e-10
1.26406e-09
5.80155e-10
1.40372e-09
4.00859e-10
1.49829e-09
3.09278e-10
1.20512e-09
1.74243e-10
3.0549e-09
4.7849e-10
7.28503e-09
5.98102e-10
5.6513e-09
9.34856e-10
2.61913e-09
1.89316e-09
1.82813e-09
1.30702e-09
1.69022e-09
7.90539e-10
2.0311e-09
6.1147e-10
2.16858e-09
8.86786e-10
2.34363e-09
1.99347e-09
5.3711e-10
1.10996e-09
9.33096e-10
0.00334246
6.53911e-10
1.1011e-09
8.87636e-09
1.20329e-08
7.57412e-09
1.15447e-08
3.58657e-09
1.22732e-08
1.15276e-09
1.17025e-08
6.15013e-10
5.92662e-09
2.98586e-10
7.0723e-09
1.59238e-10
6.74499e-09
9.58705e-11
6.68095e-09
3.5109e-11
3.37333e-09
1.64583e-11
2.97157e-09
3.99138e-11
1.19265e-09
5.72324e-11
0.00267795
9.06755e-11
6.34349e-10
1.152e-10
7.9367e-10
1.33894e-10
6.42643e-10
1.56574e-10
4.1621e-10
1.73582e-10
1.83041e-10
1.26577e-10
4.95733e-11
5.83732e-09
4.16078e-09
2.00593e-09
5.84466e-09
9.33173e-10
3.85038e-09
4.52579e-10
3.32387e-09
2.64864e-10
2.8443e-09
1.9808e-10
4.99254e-09
1.26832e-10
1.08789e-09
1.37124e-10
9.39545e-10
1.81879e-10
9.42766e-10
2.05576e-10
8.62196e-10
2.76653e-10
5.92756e-10
2.88593e-10
3.69615e-10
1.82688e-09
2.71637e-09
8.28258e-10
2.08834e-09
7.59069e-10
1.85365e-09
4.9289e-10
1.75776e-09
2.8099e-10
1.34394e-09
1.65095e-10
1.22347e-09
3.25171e-10
9.64207e-10
3.26847e-10
9.15336e-10
3.46706e-10
7.58845e-10
6.03777e-10
4.11446e-10
1.51717e-09
1.4389e-09
7.77496e-10
1.10585e-09
4.76155e-10
9.80947e-10
4.54442e-10
8.02571e-10
8.99307e-10
3.57193e-10
5.45107e-10
4.35022e-08
0.14032
4.20087e-08
3.50892e-08
9.28745e-10
2.23892e-09
2.731e-09
7.72731e-09
4.56038e-08
1.2103e-08
0.164617
0.30567
0.317456
0.190995
0.236896
0.245893
0.0636362
0.140561
0.138547
0.0698994
0.209652
0.224618
0.067175
0.263759
0.319689
0.0562917
0.2925
0.0740754
0.0476314
0.3025
0.502369
0.0389712
0.2925
0.593708
0.0303109
0.263792
0.686455
0.0220427
0.209618
0.780034
0.0123417
0.139817
0.868062
0.00466511
0.0627245
0.779803
0.0123181
0.0743148
0.685227
0.0222633
0.0822434
0.593708
0.0303109
0.0791025
0.502369
0.0389712
0.0791026
0.411029
0.0476314
0.0791026
0.319689
0.0562917
0.0788855
0.224529
0.0677041
0.0825629
0.138547
0.0698994
0.0766239
0.0636363
0.150231
0.241427
0.24429
0.121982
0.279468
0.326199
0.106753
0.300943
0.410723
0.088143
0.300883
0.496077
0.0692821
0.281789
0.582436
0.0516606
0.242111
0.664994
0.0340235
0.151868
0.578387
0.0529035
0.145907
0.494144
0.0709539
0.0139773
0.0223489
0.00373133
0.0235303
0.0124398
0.00817004
0.00876846
0.0131808
0.0115212
0.0138827
0.017095
0.0111578
0.0107156
0.0155399
0.0137404
0.0156441
0.0248061
0.00968985
0.0270019
0.0198583
0.0433705
0.023
0.0422314
0.0623022
0.163443
0.00573205
0.0125998
0.0218217
0.0364498
0.0932184
0.0598118
0.0127626
0.0221581
0.056253
0.0668661
0.0940096
0.198801
0.00673572
0.00347508
0.0109185
0.033078
0.0789164
0.0885286
0.121986
0.00677699
0.0133802
0.0196362
0.0376031
0.0691153
0.144172
0.103878
0.143317
0.0997909
0.00405138
0.00684074
0.00202773
0.0106125
0.0238073
0.0559827
0.0872365
0.124835
0.154687
0.00388667
0.00673614
0.0102017
0.0202646
0.038595
0.067344
0.165179
0.204222
0.178814
0.159537
0.193151
0.00264288
0.00434243
0.00676635
0.00109273
0.00998535
0.0144991
0.0236567
0.0339398
0.0508222
0.0915071
0.100528
0.00222705
0.00394506
0.00605286
0.0103482
0.0179953
0.0351901
0.0648656
0.0801098
0.0903082
0.182451
0.106316
0.105885
0.0705603
0.138573
0.187322
0.00124307
0.00324823
0.00546724
0.000705705
0.0171221
0.011305
0.00703733
0.0163782
0.0315683
0.0508132
0.0939027
0.00130783
0.00231198
0.00273471
0.0046625
0.00461488
0.00800388
0.0200918
0.0395029
0.0645457
0.12919
0.121618
0.212209
0.1454
0.101252
0.208065
0.166495
0.0719635
0.160108
0.129334
0.00184233
0.00077413
0.00205399
0.00402449
0.000321499
0.0106783
0.00869349
0.00542952
0.0164057
0.0105715
0.0253042
0.0742185
0.105306
0.00139826
0.000713953
0.00255069
0.00154757
0.0021241
0.00324931
0.00482111
0.0212721
0.00802971
0.0567911
0.116074
0.134861
0.141571
0.102358
0.167598
0.174035
0.119558
0.113889
0.158709
0.00108688
0.000563112
0.00133506
0.00375208
0.00851527
0.00698969
0.00341535
0.00486786
0.00655465
0.00698715
0.000925339
0.000572877
0.00131656
0.000836594
0.00124776
0.00196397
0.00266318
0.0265516
0.0111062
0.00348699
0.0778761
0.049953
0.149682
0.124504
0.154133
0.159713
0.152387
0.162286
0.127454
0.149386
0.137773
0.00070954
0.00149078
0.000766022
0.00180359
0.0063587
0.00481705
0.0017784
0.00305342
0.00372162
0.00383373
0.00051167
0.000656437
0.000444104
0.000889992
0.000572166
0.00118582
0.00142043
0.0122126
0.00486902
0.00179775
0.0969437
0.0572569
0.112323
0.0674632
0.093065
0.171105
0.144306
0.162063
0.122373
0.000617084
0.00108856
0.000955543
0.00105221
0.00323907
0.00247986
0.00199215
0.0164109
0.00774571
0.000896721
0.000784932
0.000375924
0.000409307
0.000316761
0.000647471
0.00074502
0.0505699
0.022711
0.0660709
0.0388126
0.106807
0.153967
0.118039
0.174966
0.107919
0.109073
0.10231
0.00135269
0.00107807
0.00164347
0.00171295
0.00767869
0.00672435
0.0369473
0.01111
0.00847997
0.000694487
0.0010671
0.00109482
0.000564937
0.000298896
0.00900064
0.00353022
0.00144018
0.0719318
0.0354595
0.0165536
0.0524125
0.0195499
0.0596896
0.0981434
0.100813
0.056081
0.00189196
0.00148728
0.00183836
0.0017438
0.00208852
0.00183365
0.00469419
0.00326372
0.000630104
0.00764012
0.00611783
0.00975426
0.00809778
0.000899889
0.00147067
0.000475888
0.000680509
0.00034823
0.000357998
0.00663276
0.00257049
0.000648516
0.0283992
0.0117974
0.0246657
0.0124869
0.0660884
0.0264004
0.0584402
0.108424
0.141533
0.06074
0.0584601
0.0344947
0.00206148
0.00184323
0.00228305
0.00229617
0.00213791
0.00144228
0.00457957
0.0023342
0.00685947
0.00437138
0.0104018
0.00760473
0.00103718
0.00147346
0.000540339
0.00076097
0.000160554
0.000256166
0.00041049
0.00046734
0.00500407
0.00115415
0.00220662
0.0176193
0.00780914
0.0128825
0.00891823
0.0314967
0.0109132
0.0502664
0.0311653
0.0623237
0.0521477
0.0349475
0.0306022
0.0169272
0.00220493
0.00192907
0.00206094
0.00218617
0.00130587
0.00346482
0.00148643
0.00552143
0.00430452
0.00495962
0.00114488
0.00149683
0.00083232
0.000625791
0.000372735
0.000544549
0.00151592
0.00319609
0.00731011
0.0124565
0.0192771
0.0177061
0.0185332
0.0154493
0.011483
0.00906703
0.00143822
0.00177044
0.00184266
0.00125815
0.00143716
0.00315731
0.00451058
0.00120666
0.000782601
0.00042807
0.000945817
0.00186788
0.00384795
0.00504128
0.00586138
0.00619761
0.00794891
0.00648275
0.00519836
0.00128415
0.00152929
0.000991377
0.00128697
0.00200912
0.002843
0.00356426
0.000921367
0.000636439
0.000414072
0.000737423
0.00215512
0.0032396
0.0033068
0.00335939
0.00340348
0.00137531
0.000993216
0.000968157
0.000985739
0.00201458
0.00178556
0.000672677
0.000487963
0.000786337
0.00209677
0.00185946
0.0019147
0.000876106
0.00076766
0.000698288
0.00100185
0.000895643
0.000523132
0.00100521
0.00114819
0.000864239
0.000506501
0.000534021
0.000532039
0.000255248
0.0189419
0.0347522
0.0209596
0.019518
0.103453
0.115328
0.0762572
0.0127418
0.00203323
0.011411
0.159953
0.00428125
0.00815179
0.0415708
0.110895
0.141969
0.00278416
0.171836
0.00109427
0.00133341
0.0522864
0.000221896
0.00141183
0.0198815
0.00114438
0.0589159
0.0281456
0.181584
0.0957246
0.00256748
0.00653754
0.00642626
0.0027599
0.000633663
0.0070464
0.0101808
0.001187
0.00125577
0.00158598
0.000543084
0.0457197
0.0325261
0.019082
0.0483108
0.0844892
0.0671932
0.093456
0.0118008
0.0222792
0.038563
0.0732626
0.0226949
0.0974413
0.0816951
0.00685127
0.0121117
0.0698077
0.0119495
0.0147861
0.0289163
0.0558834
0.0965747
0.101371
0.111803
0.101358
0.00734087
0.00433074
0.0116905
0.0139803
0.0224698
0.0438842
0.0707695
0.00709874
0.0280993
0.051842
0.103293
0.092085
0.100419
0.00496143
0.00264446
0.00738082
0.00964939
0.0166124
0.0270207
0.0334619
0.067165
0.00448403
0.00796319
0.0285343
0.0549327
0.088947
0.0865813
0.105442
0.0757669
0.0975741
0.0884139
0.101078
0.00149988
0.00378435
0.0179796
0.0120133
0.0303893
0.0189925
0.0489934
0.00275772
0.00413685
0.00574468
0.00365143
0.0288099
0.0807994
0.0759345
0.0956888
0.0813635
0.0735064
0.0854149
0.108882
0.00175673
0.00231066
0.0133614
0.00959605
0.00591692
0.0136155
0.00212435
0.0013127
0.00176652
0.00214885
0.00368883
0.00496697
0.00658399
0.0642454
0.0921885
0.0796247
0.103793
0.0840109
0.0897173
0.00294524
0.0032893
0.0108199
0.00752621
0.00329334
0.00383245
0.02197
0.00150963
0.00114834
0.0010393
0.00159835
0.00268268
0.0456034
0.0232691
0.0672529
0.0703501
0.0704355
0.107487
0.0915447
0.0913956
0.0745973
0.000878001
0.069161
0.00171348
0.000507393
0.00248294
0.00288423
0.0178881
0.0127179
0.00195101
0.00173545
0.0272397
0.0123517
0.0349552
0.0609264
0.0401914
0.00335162
0.00260917
0.00309307
0.00369851
0.00431224
0.00993592
0.007534
0.0191949
0.0135834
0.00137066
0.00200756
0.000996795
0.00489457
0.00239005
0.000915132
0.0204344
0.00893276
0.0326162
0.0182809
0.034451
0.0571746
0.0389514
0.0298106
0.00345322
0.00305174
0.00357607
0.00353619
0.00311904
0.00842169
0.00550016
0.00927381
0.00143808
0.00204693
0.00102742
0.000686014
0.00492871
0.00268562
0.0132106
0.0168655
0.0268758
0.0375242
0.0452553
0.0192718
0.0156281
0.00302122
0.00247306
0.00665128
0.0050897
0.00177702
0.000953578
0.0017053
0.00319283
0.00772928
0.0137156
0.0119567
0.00906577
0.00633106
0.00239143
0.00244031
0.00233014
0.0052042
0.00161201
0.00694735
0.00502747
0.00395284
0.00190616
0.00168687
0.00190611
0.00343374
0.0044095
0.00113274
0.00056486
0.00275378
0.00145649
0.00191579
0.00138865
0.0017647
0.00100888
0.000764353
0.0453613
0.044907
0.0958255
0.020957
0.0178995
0.0869651
0.0073428
0.0137912
0.0740549
0.0867812
0.00250368
0.00470831
0.00858845
0.00735379
0.0148059
0.00783607
0.102472
0.112086
0.00497785
0.0156102
0.00821158
0.0963043
0.00703787
0.00229556
0.0786878
0.0354361
0.0542757
0.000677345
0.0113759
0.00133198
0.0117673
0.0129399
0.00281753
0.0041493
0.00780028
0.00121931
0.00146881
0.0235299
0.00213606
0.00111863
0.00226656
0.00343248
0.00335374
0.00179733
0.00335381
0.00251701
0.00179837
0.0211806
0.00276618
0.00172753
0.0412593
0.00432306
0.00342967
0.00476702
0.0106488
0.0174702
0.00264347
0.0493012
0.0625828
0.0231252
0.0400415
0.0650226
0.0230415
0.0114921
0.041383
0.0623613
0.0093437
0.00540778
0.0106152
0.0142089
0.0247079
0.0362392
0.00774944
0.0417221
0.0813283
0.0598262
0.00579181
0.0182341
0.029863
0.0442425
0.00450452
0.0600058
0.0514277
0.0549887
0.00430535
0.0177609
0.0128757
0.00356702
0.00365942
0.0502757
0.0537674
0.0140646
0.0102159
0.00511017
0.0051911
0.00215415
0.00196354
0.00287892
0.00908924
0.0455373
0.0451214
0.0535856
0.0542377
0.00478954
0.00131522
0.00339345
0.00318015
0.00396454
0.00451393
0.00304224
0.0198154
0.0372192
0.0287305
0.049616
0.00528642
0.00592772
0.00832028
0.0025609
0.00471022
0.0262657
0.0287989
0.0305851
0.0201542
0.00489676
0.00400775
0.00927409
0.00327134
0.00455322
0.0136553
0.010765
0.00505438
0.00319326
0.00682603
0.00251187
0.00090879
0.0112844
0.0252643
0.0290485
0.00179393
0.0748563
0.0690265
0.071646
0.0104056
0.00544693
0.0392614
0.0389644
0.0640796
0.0132709
0.0353413
0.0574261
0.0158066
0.0520426
0.0559327
0.00724045
0.0112755
0.0068652
0.037905
0.049736
0.0583852
0.0567414
0.0600565
0.0612026
0.0680932
0.0238663
0.00685949
0.00649261
0.0126962
0.0178428
0.0641273
0.0558552
0.00884956
0.055547
0.0185176
0.0320269
0.0614693
0.00588402
0.0123231
0.024706
0.0188473
0.0129521
0.00186322
0.00223152
0.016505
0.00891113
0.0105204
0.0163533
0.004849
0.00650984
0.0079986
0.00302616
0.00219632
0.0272805
0.0145446
0.0327876
0.00412704
0.00375568
0.00579159
0.00254223
0.0103021
0.00682997
0.00415717
0.00375002
0.00281167
0.010669
0.00439014
0.0229573
0.0131218
0.0112298
0.00654597
0.00685799
0.00463892
0.0136437
0.0131809
0.00816399
0.018238
0.0230976
0.0356197
0.00471429
0.00853033
0.0311375
0.00756632
0.0189054
0.00162062
0.0603979
0.0227669
0.0581665
0.00638011
0.00677912
0.0073185
0.0197442
0.0461569
0.0852144
0.0129411
0.0172744
0.0039136
0.00399291
0.00368999
0.0254053
0.0343921
0.0174648
0.00425919
0.00649388
0.00500764
0.0124991
0.0376253
0.0582433
0.05498
0.0339595
0.0430135
0.0151733
0.0111205
0.00589359
0.0134155
0.0383025
0.00483873
0.029912
0.0385082
0.0344934
0.0396426
0.00661415
0.00366373
0.00451598
0.00696381
0.0315241
0.00717133
0.0103739
0.00757685
0.0251669
0.00660903
0.0115419
0.0042242
0.00368057
0.0105533
0.00659943
0.00470254
0.00877155
0.022182
0.031945
0.0175706
0.0151776
0.00979537
0.00619499
0.0227911
0.00585016
0.0070942
0.0371105
0.0311106
0.021373
0.00573293
0.0076688
0.0291964
0.00513287
0.0109276
0.0299712
0.0360118
0.0157558
0.0134513
0.0238341
0.0273953
0.0117109
0.0495563
0.00867867
0.00902511
0.0104971
0.0179172
0.0207557
0.00622913
0.00256335
0.0088471
